 TITLE = "ADVECTION DIFFUSION SOLUTION" 
 VARIABLES = "x","y","U","V"
 ZONE I= 21,J= 21, F=POINT
  -1.41421356   -1.41421356               0.00000000               0.00000000 
  -1.40799001   -1.40799001               0.00000000               0.00000000 
  -1.39349290   -1.39349290               0.00000000               0.00000000 
  -1.37110890   -1.37110890               0.00000000               0.00000000 
  -1.34136447   -1.34136447               0.00000000               0.00000000 
  -1.30495711   -1.30495711               0.00000000               0.00000000 
  -1.26274028   -1.26274028               0.00000000               0.00000000 
  -1.21570354   -1.21570354               0.00000000               0.00000000 
  -1.16494941   -1.16494941               0.00000000               0.00000000 
  -1.11166752   -1.11166752               0.00000000               0.00000000 
  -1.05710678   -1.05710678               0.00000000               0.00000000 
  -1.00254604   -1.00254604               0.00000000               0.00000000 
  -0.94926416   -0.94926416               0.00000000               0.00000000 
  -0.89851002   -0.89851002               0.00000000               0.00000000 
  -0.85147328   -0.85147328               0.00000000               0.00000000 
  -0.80925645   -0.80925645               0.00000000               0.00000000 
  -0.77284910   -0.77284910               0.00000000               0.00000000 
  -0.74310466   -0.74310466               0.00000000               0.00000000 
  -0.72072066   -0.72072066               0.00000000               0.00000000 
  -0.70622355   -0.70622355               0.00000000               0.00000000 
  -0.70000000   -0.70000000               0.00000000               0.00000000 
  -1.39472438   -1.43343779               0.00000000               0.00000000 
  -1.38856435   -1.42704672               0.00000000               0.00000000 
  -1.37421521   -1.41215940               0.00000000               0.00000000 
  -1.35205968   -1.38917290               0.00000000               0.00000000 
  -1.32261884   -1.35862784               0.00000000               0.00000000 
  -1.28658308   -1.32124052               0.00000000               0.00000000 
  -1.24479714   -1.27788736               0.00000000               0.00000000 
  -1.19824050   -1.22958455               0.00000000               0.00000000 
  -1.14800440   -1.17746428               0.00000000               0.00000000 
  -1.09526635   -1.12274823               0.00000000               0.00000000 
  -1.04126249   -1.06671890               0.00000000               0.00000000 
  -0.98725864   -1.01068956               0.00000000               0.00000000 
  -0.93452059   -0.95597351               0.00000000               0.00000000 
  -0.88428449   -0.90385325               0.00000000               0.00000000 
  -0.83772784   -0.85555044               0.00000000               0.00000000 
  -0.79594191   -0.81219727               0.00000000               0.00000000 
  -0.75990615   -0.77480995               0.00000000               0.00000000 
  -0.73046531   -0.74426489               0.00000000               0.00000000 
  -0.70830978   -0.72127839               0.00000000               0.00000000 
  -0.69396064   -0.70639107               0.00000000               0.00000000 
  -0.68780061   -0.70000000               0.00000001               0.00000001 
  -1.34831949   -1.47717114               0.00000000               0.00000000 
  -1.34231620   -1.47039898               0.00000000               0.00000000 
  -1.32833217   -1.45462396               0.00000000               0.00000000 
  -1.30674039   -1.43026682               0.00000000               0.00000000 
  -1.27804867   -1.39790043               0.00000000               0.00000000 
  -1.24292984   -1.35828378               0.00000000               0.00000000 
  -1.20220715   -1.31234556               0.00000000               0.00000000 
  -1.15683514   -1.26116255               0.00000000               0.00000000 
  -1.10787730   -1.20593447               0.00000000               0.00000000 
  -1.05648117   -1.14795581               0.00000000               0.00000000 
  -1.00385145   -1.08858557               0.00000000               0.00000000 
  -0.95122172   -1.02921532               0.00000000               0.00000000 
  -0.89982559   -0.97123667               0.00000000               0.00000000 
  -0.85086775   -0.91600858               0.00000000               0.00000000 
  -0.80549574   -0.86482558               0.00000000               0.00000000 
  -0.76477305   -0.81888736               0.00000000               0.00000000 
  -0.72965422   -0.77927071               0.00000000               0.00000000 
  -0.70096251   -0.74690432               0.00000000               0.00000000 
  -0.67937072   -0.72254717               0.00000000               0.00000000 
  -0.66538669   -0.70677215               0.00000001               0.00000001 
  -0.65938341   -0.70000000               0.00000001               0.00000001 
  -1.27399421   -1.54173238               0.00000000               0.00000000 
  -1.26825625   -1.53439765               0.00000000               0.00000000 
  -1.25489026   -1.51731217               0.00000000               0.00000000 
  -1.23425274   -1.49093163               0.00000000               0.00000000 
  -1.20682908   -1.45587649               0.00000000               0.00000000 
  -1.17326237   -1.41296880               0.00000000               0.00000000 
  -1.13433946   -1.36321440               0.00000000               0.00000000 
  -1.09097270   -1.30777951               0.00000000               0.00000000 
  -1.04417860   -1.24796351               0.00000000               0.00000000 
  -0.99505398   -1.18516845               0.00000000               0.00000000 
  -0.94475027   -1.12086619               0.00000000               0.00000000 
  -0.89444657   -1.05656393               0.00000000               0.00000000 
  -0.84532194   -0.99376887               0.00000000               0.00000000 
  -0.79852784   -0.93395287               0.00000000               0.00000000 
  -0.75516109   -0.87851799               0.00000000               0.00000000 
  -0.71623817   -0.82876358               0.00000000               0.00000000 
  -0.68267146   -0.78585589               0.00000000               0.00000000 
  -0.65524780   -0.75080076               0.00000000               0.00000000 
  -0.63461028   -0.72442021               0.00000001               0.00000001 
  -0.62124429   -0.70733473               0.00000003               0.00000003 
  -0.61550633   -0.70000000               0.00000005               0.00000005 
  -1.17048396   -1.62171739               0.00000000               0.00000000 
  -1.16513991   -1.61368568               0.00000000               0.00000000 
  -1.15269150   -1.59497666               0.00000000               0.00000000 
  -1.13347075   -1.56608933               0.00000000               0.00000000 
  -1.10792973   -1.52770310               0.00000000               0.00000000 
  -1.07666737   -1.48071815               0.00000000               0.00000000 
  -1.04041652   -1.42623586               0.00000000               0.00000000 
  -1.00002690   -1.36553332               0.00000000               0.00000000 
  -0.95644522   -1.30003335               0.00000000               0.00000000 
  -0.91069300   -1.23127123               0.00000000               0.00000000 
  -0.86384265   -1.16085870               0.00000000               0.00000000 
  -0.81699230   -1.09044616               0.00000000               0.00000000 
  -0.77124009   -1.02168404               0.00000000               0.00000000 
  -0.72765841   -0.95618407               0.00000000               0.00000000 
  -0.68726879   -0.89548153               0.00000000               0.00000000 
  -0.65101794   -0.84099925               0.00000000               0.00000000 
  -0.61975558   -0.79401429               0.00000000               0.00000000 
  -0.59421456   -0.75562806               0.00000002               0.00000002 
  -0.57499381   -0.72674073               0.00000006               0.00000006 
  -0.56254540   -0.70803171               0.00000013               0.00000013 
  -0.55720135   -0.70000000               0.00000018               0.00000018 
  -1.03701815   -1.71014425               0.00000000               0.00000000 
  -1.03221523   -1.70134200               0.00000000               0.00000000 
  -1.02102733   -1.68083810               0.00000000               0.00000000 
  -1.00375284   -1.64917940               0.00000000               0.00000000 
  -0.98079807   -1.60711051               0.00000000               0.00000000 
  -0.95270130   -1.55561795               0.00000000               0.00000000 
  -0.92012116   -1.49590880               0.00000000               0.00000000 
  -0.88382134   -1.42938263               0.00000000               0.00000000 
  -0.84465268   -1.35759878               0.00000000               0.00000000 
  -0.80353328   -1.28223983               0.00000000               0.00000000 
  -0.76142693   -1.20507213               0.00000000               0.00000000 
  -0.71932059   -1.12790442               0.00000000               0.00000000 
  -0.67820118   -1.05254547               0.00000000               0.00000000 
  -0.63903252   -0.98076162               0.00000000               0.00000000 
  -0.60273270   -0.91423545               0.00000000               0.00000000 
  -0.57015257   -0.85452630               0.00000000               0.00000000 
  -0.54205580   -0.80303374               0.00000001               0.00000001 
  -0.51910102   -0.76096485               0.00000007               0.00000007 
  -0.50182654   -0.72930616               0.00000025               0.00000025 
  -0.49063864   -0.70880225               0.00000056               0.00000056 
  -0.48583572   -0.70000000               0.00000079               0.00000079 
  -0.87399412   -1.79892587               0.00000000               0.00000000 
  -0.86989067   -1.78934999               0.00000000               0.00000000 
  -0.86033210   -1.76704399               0.00000000               0.00000000 
  -0.84557336   -1.73260281               0.00000000               0.00000000 
  -0.82596158   -1.68683649               0.00000000               0.00000000 
  -0.80195664   -1.63081825               0.00000000               0.00000000 
  -0.77412127   -1.56586125               0.00000000               0.00000000 
  -0.74310792   -1.49348809               0.00000000               0.00000000 
  -0.70964353   -1.41539517               0.00000000               0.00000000 
  -0.67451249   -1.33341291               0.00000000               0.00000000 
  -0.63853825   -1.24946293               0.00000000               0.00000000 
  -0.60256400   -1.16551296               0.00000000               0.00000000 
  -0.56743296   -1.08353070               0.00000000               0.00000000 
  -0.53396858   -1.00543777               0.00000000               0.00000000 
  -0.50295523   -0.93306462               0.00000000               0.00000000 
  -0.47511986   -0.86810762               0.00000000               0.00000000 
  -0.45111492   -0.81208938               0.00000005               0.00000005 
  -0.43150313   -0.76632306               0.00000031               0.00000031 
  -0.41674439   -0.73188187               0.00000110               0.00000110 
  -0.40718583   -0.70957588               0.00000246               0.00000246 
  -0.40308237   -0.70000000               0.00000344               0.00000344 
  -0.68355514   -1.87956175               0.00000000               0.00000000 
  -0.68030771   -1.86928322               0.00000000               0.00000000 
  -0.67274317   -1.84534048               0.00000000               0.00000000 
  -0.66106328   -1.80837211               0.00000000               0.00000000 
  -0.64554274   -1.75924759               0.00000000               0.00000000 
  -0.62654551   -1.69911890               0.00000000               0.00000000 
  -0.60451692   -1.62939555               0.00000000               0.00000000 
  -0.57997332   -1.55171187               0.00000000               0.00000000 
  -0.55348999   -1.46788872               0.00000000               0.00000000 
  -0.52568769   -1.37989085               0.00000000               0.00000000 
  -0.49721809   -1.28978088               0.00000000               0.00000000 
  -0.46874849   -1.19967090               0.00000000               0.00000000 
  -0.44094620   -1.11167303               0.00000000               0.00000000 
  -0.41446287   -1.02784988               0.00000000               0.00000000 
  -0.38991927   -0.95016620               0.00000000               0.00000000 
  -0.36789068   -0.88044285               0.00000002               0.00000002 
  -0.34889345   -0.82031416               0.00000020               0.00000020 
  -0.33337291   -0.77118964               0.00000118               0.00000118 
  -0.32169301   -0.73422127               0.00000420               0.00000420 
  -0.31412848   -0.71027853               0.00000923               0.00000923 
  -0.31088105   -0.70000000               0.00001284               0.00001284 
  -0.46992945   -1.94400780               0.00000000               0.00000000 
  -0.46767660   -1.93316770               0.00000000               0.00000000 
  -0.46242883   -1.90791683               0.00000000               0.00000000 
  -0.45432609   -1.86892866               0.00000000               0.00000000 
  -0.44355897   -1.81712020               0.00000000               0.00000000 
  -0.43037996   -1.75370634               0.00000000               0.00000000 
  -0.41509798   -1.68017362               0.00000000               0.00000000 
  -0.39807126   -1.59824565               0.00000000               0.00000000 
  -0.37969888   -1.50984277               0.00000000               0.00000000 
  -0.36041150   -1.41703708               0.00000000               0.00000000 
  -0.34066118   -1.32200390               0.00000000               0.00000000 
  -0.32091086   -1.22697071               0.00000000               0.00000000 
  -0.30162347   -1.13416503               0.00000000               0.00000000 
  -0.28325109   -1.04576215               0.00000000               0.00000000 
  -0.26622437   -0.96383417               0.00000000               0.00000000 
  -0.25094240   -0.89030145               0.00000006               0.00000006 
  -0.23776338   -0.82688760               0.00000059               0.00000059 
  -0.22699626   -0.77507913               0.00000346               0.00000346 
  -0.21889352   -0.73609097               0.00001207               0.00001207 
  -0.21364575   -0.71084010               0.00002623               0.00002623 
  -0.21139290   -0.70000000               0.00003630               0.00003630 
  -0.23941938   -1.98561788               0.00000000               0.00000000 
  -0.23826506   -1.97441520               0.00000000               0.00000000 
  -0.23557619   -1.94831972               0.00000000               0.00000000 
  -0.23142450   -1.90802747               0.00000000               0.00000000 
  -0.22590761   -1.85448609               0.00000000               0.00000000 
  -0.21915492   -1.78895114               0.00000000               0.00000000 
  -0.21132471   -1.71295887               0.00000000               0.00000000 
  -0.20260052   -1.62829054               0.00000000               0.00000000 
  -0.19318684   -1.53693072               0.00000000               0.00000000 
  -0.18330433   -1.44102083               0.00000000               0.00000000 
  -0.17318462   -1.34280894               0.00000000               0.00000000 
  -0.16306491   -1.24459704               0.00000000               0.00000000 
  -0.15318239   -1.14868716               0.00000000               0.00000000 
  -0.14376872   -1.05732734               0.00000000               0.00000000 
  -0.13504453   -0.97265901               0.00000001               0.00000001 
  -0.12721432   -0.89666674               0.00000012               0.00000012 
  -0.12046162   -0.83113179               0.00000120               0.00000120 
  -0.11494474   -0.77759041               0.00000688               0.00000688 
  -0.11079305   -0.73729816               0.00002376               0.00002376 
  -0.10810418   -0.71120268               0.00005119               0.00005119 
  -0.10694986   -0.70000000               0.00007058               0.00007058 
  -0.00000000   -2.00000000               0.00000000               0.00000000 
  -0.00000000   -1.98867199               0.00000000               0.00000000 
  -0.00000000   -1.96228459               0.00000000               0.00000000 
  -0.00000000   -1.92154159               0.00000000               0.00000000 
  -0.00000000   -1.86740125               0.00000000               0.00000000 
  -0.00000000   -1.80113317               0.00000000               0.00000000 
  -0.00000000   -1.72429077               0.00000000               0.00000000 
  -0.00000000   -1.63867526               0.00000000               0.00000000 
  -0.00000000   -1.54629341               0.00000000               0.00000000 
   0.00000000   -1.44931059               0.00000000               0.00000000 
  -0.00000000   -1.35000000               0.00000000               0.00000000 
   0.00000000   -1.25068941               0.00000000               0.00000000 
  -0.00000000   -1.15370659               0.00000000               0.00000000 
  -0.00000000   -1.06132474               0.00000000               0.00000000 
  -0.00000000   -0.97570923               0.00000001               0.00000001 
   0.00000000   -0.89886683               0.00000015               0.00000015 
  -0.00000000   -0.83259875               0.00000152               0.00000152 
  -0.00000000   -0.77845841               0.00000872               0.00000872 
  -0.00000000   -0.73771541               0.00003000               0.00003000 
  -0.00000000   -0.71132801               0.00006444               0.00006444 
   0.00000000   -0.70000000               0.00008872               0.00008872 
   0.23941938   -1.98561788               0.00000000               0.00000000 
   0.23826506   -1.97441520               0.00000000               0.00000000 
   0.23557619   -1.94831972               0.00000000               0.00000000 
   0.23142450   -1.90802747               0.00000000               0.00000000 
   0.22590761   -1.85448609               0.00000000               0.00000000 
   0.21915492   -1.78895114               0.00000000               0.00000000 
   0.21132471   -1.71295887               0.00000000               0.00000000 
   0.20260052   -1.62829054               0.00000000               0.00000000 
   0.19318684   -1.53693072               0.00000000               0.00000000 
   0.18330433   -1.44102083               0.00000000               0.00000000 
   0.17318462   -1.34280894               0.00000000               0.00000000 
   0.16306491   -1.24459704               0.00000000               0.00000000 
   0.15318239   -1.14868716               0.00000000               0.00000000 
   0.14376872   -1.05732734               0.00000000               0.00000000 
   0.13504453   -0.97265901               0.00000001               0.00000001 
   0.12721432   -0.89666674               0.00000012               0.00000012 
   0.12046162   -0.83113179               0.00000120               0.00000120 
   0.11494474   -0.77759041               0.00000688               0.00000688 
   0.11079305   -0.73729816               0.00002376               0.00002376 
   0.10810418   -0.71120268               0.00005119               0.00005119 
   0.10694986   -0.70000000               0.00007058               0.00007058 
   0.46992945   -1.94400780               0.00000000               0.00000000 
   0.46767660   -1.93316770               0.00000000               0.00000000 
   0.46242883   -1.90791683               0.00000000               0.00000000 
   0.45432609   -1.86892866               0.00000000               0.00000000 
   0.44355897   -1.81712020               0.00000000               0.00000000 
   0.43037996   -1.75370634               0.00000000               0.00000000 
   0.41509798   -1.68017362               0.00000000               0.00000000 
   0.39807126   -1.59824565               0.00000000               0.00000000 
   0.37969888   -1.50984277               0.00000000               0.00000000 
   0.36041150   -1.41703708               0.00000000               0.00000000 
   0.34066118   -1.32200390               0.00000000               0.00000000 
   0.32091086   -1.22697071               0.00000000               0.00000000 
   0.30162347   -1.13416503               0.00000000               0.00000000 
   0.28325109   -1.04576215               0.00000000               0.00000000 
   0.26622437   -0.96383417               0.00000000               0.00000000 
   0.25094240   -0.89030145               0.00000006               0.00000006 
   0.23776338   -0.82688760               0.00000059               0.00000059 
   0.22699626   -0.77507913               0.00000346               0.00000346 
   0.21889352   -0.73609097               0.00001207               0.00001207 
   0.21364575   -0.71084010               0.00002623               0.00002623 
   0.21139290   -0.70000000               0.00003630               0.00003630 
   0.68355514   -1.87956175               0.00000000               0.00000000 
   0.68030771   -1.86928322               0.00000000               0.00000000 
   0.67274317   -1.84534048               0.00000000               0.00000000 
   0.66106328   -1.80837211               0.00000000               0.00000000 
   0.64554274   -1.75924759               0.00000000               0.00000000 
   0.62654551   -1.69911890               0.00000000               0.00000000 
   0.60451692   -1.62939555               0.00000000               0.00000000 
   0.57997332   -1.55171187               0.00000000               0.00000000 
   0.55348999   -1.46788872               0.00000000               0.00000000 
   0.52568769   -1.37989085               0.00000000               0.00000000 
   0.49721809   -1.28978088               0.00000000               0.00000000 
   0.46874849   -1.19967090               0.00000000               0.00000000 
   0.44094620   -1.11167303               0.00000000               0.00000000 
   0.41446287   -1.02784988               0.00000000               0.00000000 
   0.38991927   -0.95016620               0.00000000               0.00000000 
   0.36789068   -0.88044285               0.00000002               0.00000002 
   0.34889345   -0.82031416               0.00000020               0.00000020 
   0.33337291   -0.77118964               0.00000118               0.00000118 
   0.32169301   -0.73422127               0.00000420               0.00000420 
   0.31412848   -0.71027853               0.00000923               0.00000923 
   0.31088105   -0.70000000               0.00001284               0.00001284 
   0.87399412   -1.79892587               0.00000000               0.00000000 
   0.86989067   -1.78934999               0.00000000               0.00000000 
   0.86033210   -1.76704399               0.00000000               0.00000000 
   0.84557336   -1.73260281               0.00000000               0.00000000 
   0.82596158   -1.68683649               0.00000000               0.00000000 
   0.80195664   -1.63081825               0.00000000               0.00000000 
   0.77412127   -1.56586125               0.00000000               0.00000000 
   0.74310792   -1.49348809               0.00000000               0.00000000 
   0.70964353   -1.41539517               0.00000000               0.00000000 
   0.67451249   -1.33341291               0.00000000               0.00000000 
   0.63853825   -1.24946293               0.00000000               0.00000000 
   0.60256400   -1.16551296               0.00000000               0.00000000 
   0.56743296   -1.08353070               0.00000000               0.00000000 
   0.53396858   -1.00543777               0.00000000               0.00000000 
   0.50295523   -0.93306462               0.00000000               0.00000000 
   0.47511986   -0.86810762               0.00000000               0.00000000 
   0.45111492   -0.81208938               0.00000005               0.00000005 
   0.43150313   -0.76632306               0.00000031               0.00000031 
   0.41674439   -0.73188187               0.00000110               0.00000110 
   0.40718583   -0.70957588               0.00000246               0.00000246 
   0.40308237   -0.70000000               0.00000344               0.00000344 
   1.03701815   -1.71014425               0.00000000               0.00000000 
   1.03221523   -1.70134200               0.00000000               0.00000000 
   1.02102733   -1.68083810               0.00000000               0.00000000 
   1.00375284   -1.64917940               0.00000000               0.00000000 
   0.98079807   -1.60711051               0.00000000               0.00000000 
   0.95270130   -1.55561795               0.00000000               0.00000000 
   0.92012116   -1.49590880               0.00000000               0.00000000 
   0.88382134   -1.42938263               0.00000000               0.00000000 
   0.84465268   -1.35759878               0.00000000               0.00000000 
   0.80353328   -1.28223983               0.00000000               0.00000000 
   0.76142693   -1.20507213               0.00000000               0.00000000 
   0.71932059   -1.12790442               0.00000000               0.00000000 
   0.67820118   -1.05254547               0.00000000               0.00000000 
   0.63903252   -0.98076162               0.00000000               0.00000000 
   0.60273270   -0.91423545               0.00000000               0.00000000 
   0.57015257   -0.85452630               0.00000000               0.00000000 
   0.54205580   -0.80303374               0.00000001               0.00000001 
   0.51910102   -0.76096485               0.00000007               0.00000007 
   0.50182654   -0.72930616               0.00000025               0.00000025 
   0.49063864   -0.70880225               0.00000056               0.00000056 
   0.48583572   -0.70000000               0.00000079               0.00000079 
   1.17048396   -1.62171739               0.00000000               0.00000000 
   1.16513991   -1.61368568               0.00000000               0.00000000 
   1.15269150   -1.59497666               0.00000000               0.00000000 
   1.13347075   -1.56608933               0.00000000               0.00000000 
   1.10792973   -1.52770310               0.00000000               0.00000000 
   1.07666737   -1.48071815               0.00000000               0.00000000 
   1.04041652   -1.42623586               0.00000000               0.00000000 
   1.00002690   -1.36553332               0.00000000               0.00000000 
   0.95644522   -1.30003335               0.00000000               0.00000000 
   0.91069300   -1.23127123               0.00000000               0.00000000 
   0.86384265   -1.16085870               0.00000000               0.00000000 
   0.81699230   -1.09044616               0.00000000               0.00000000 
   0.77124009   -1.02168404               0.00000000               0.00000000 
   0.72765841   -0.95618407               0.00000000               0.00000000 
   0.68726879   -0.89548153               0.00000000               0.00000000 
   0.65101794   -0.84099925               0.00000000               0.00000000 
   0.61975558   -0.79401429               0.00000000               0.00000000 
   0.59421456   -0.75562806               0.00000002               0.00000002 
   0.57499381   -0.72674073               0.00000006               0.00000006 
   0.56254540   -0.70803171               0.00000013               0.00000013 
   0.55720135   -0.70000000               0.00000018               0.00000018 
   1.27399421   -1.54173238               0.00000000               0.00000000 
   1.26825625   -1.53439765               0.00000000               0.00000000 
   1.25489026   -1.51731217               0.00000000               0.00000000 
   1.23425274   -1.49093163               0.00000000               0.00000000 
   1.20682908   -1.45587649               0.00000000               0.00000000 
   1.17326237   -1.41296880               0.00000000               0.00000000 
   1.13433946   -1.36321440               0.00000000               0.00000000 
   1.09097270   -1.30777951               0.00000000               0.00000000 
   1.04417860   -1.24796351               0.00000000               0.00000000 
   0.99505398   -1.18516845               0.00000000               0.00000000 
   0.94475027   -1.12086619               0.00000000               0.00000000 
   0.89444657   -1.05656393               0.00000000               0.00000000 
   0.84532194   -0.99376887               0.00000000               0.00000000 
   0.79852784   -0.93395287               0.00000000               0.00000000 
   0.75516109   -0.87851799               0.00000000               0.00000000 
   0.71623817   -0.82876358               0.00000000               0.00000000 
   0.68267146   -0.78585589               0.00000000               0.00000000 
   0.65524780   -0.75080076               0.00000000               0.00000000 
   0.63461028   -0.72442021               0.00000001               0.00000001 
   0.62124429   -0.70733473               0.00000003               0.00000003 
   0.61550633   -0.70000000               0.00000005               0.00000005 