 TITLE = "ADVECTION DIFFUSION SOLUTION" 
 VARIABLES = "x","y","P","U","V"
 ZONE I= 25,J= 25, F=POINT
   0.66666667    0.33333333               0.00000000               0.00000000               0.00000000 
   0.65852663    0.34147337               0.00000000               0.00000000               0.00000000 
   0.63950943    0.36049057               0.00000000               0.00000000               0.00000000 
   0.60998851    0.39001149               0.00000000               0.00000000               0.00000000 
   0.57045098    0.42954902               0.00000000               0.00000000               0.00000000 
   0.52154644    0.47845356               0.00000000               0.00000000               0.00000000 
   0.46407803    0.53592197               0.00000000               0.00000000               0.00000000 
   0.39898943    0.60101057               0.00000000               0.00000000               0.00000000 
   0.32734941    0.67265059               0.00000000               0.00000000               0.00000000 
   0.25033431    0.74966569               0.00000000               0.00000000               0.00000000 
   0.16920871    0.83079129               0.00000000               0.00000000               0.00000000 
   0.08530471    0.91469529               0.00000000               0.00000000               0.00000000 
   0.00000000    1.00000000               0.00000000               0.00000000               0.00000000 
  -0.08530471    1.08530471               0.00000000               0.00000000               0.00000000 
  -0.16920871    1.16920871               0.00000000               0.00000000               0.00000000 
  -0.25033431    1.25033431               0.00000000               0.00000000               0.00000000 
  -0.32734941    1.32734941               0.00000000               0.00000000               0.00000000 
  -0.39898943    1.39898943               0.00000000               0.00000000               0.00000000 
  -0.46407803    1.46407803               0.00000000               0.00000000               0.00000000 
  -0.52154644    1.52154644               0.00000000               0.00000000               0.00000000 
  -0.57045098    1.57045098               0.00000000               0.00000000               0.00000000 
  -0.60998851    1.60998851               0.00000000               0.00000000               0.00000000 
  -0.63950943    1.63950943               0.00000000               0.00000000               0.00000000 
  -0.65852663    1.65852663               0.00000000               0.00000000               0.00000000 
  -0.66666667    1.66666667               0.00000000               0.00000000               0.00000000 
   0.67887672    0.33943836               0.00000000               0.00000000               0.00000000 
   0.67073669    0.34757840               0.00000000               0.00000000               0.00000000 
   0.65171948    0.36659560               0.00000000               0.00000000               0.00000000 
   0.62219857    0.39611651               0.00000000               0.00000000               0.00000000 
   0.58266103    0.43565405               0.00000000               0.00000000               0.00000000 
   0.53375649    0.48455859               0.00000000               0.00000000               0.00000000 
   0.47628809    0.54202699               0.00000000               0.00000000               0.00000000 
   0.41119949    0.60711560               0.00000000               0.00000000               0.00000000 
   0.33955946    0.67875562               0.00000000               0.00000000               0.00000000 
   0.26254436    0.75577072               0.00000000               0.00000000               0.00000000 
   0.18141876    0.83689632               0.00000000               0.00000000               0.00000000 
   0.09751476    0.92080032               0.00000000               0.00000000               0.00000000 
   0.01221006    1.00610503               0.00000000               0.00000000               0.00000000 
  -0.07309465    1.09140973               0.00000000               0.00000000               0.00000000 
  -0.15699865    1.17531374               0.00000000               0.00000000               0.00000000 
  -0.23812425    1.25643933               0.00000000               0.00000000               0.00000000 
  -0.31513935    1.33345444               0.00000000               0.00000000               0.00000000 
  -0.38677938    1.40509446               0.00000000               0.00000000               0.00000000 
  -0.45186798    1.47018306               0.00000000               0.00000000               0.00000000 
  -0.50933638    1.52765147               0.00000000               0.00000000               0.00000000 
  -0.55824092    1.57655600               0.00000000               0.00000000               0.00000000 
  -0.59777846    1.61609354               0.00000000               0.00000000               0.00000000 
  -0.62729937    1.64561445               0.00000000               0.00000000               0.00000000 
  -0.64631657    1.66463166               0.00000000               0.00000000               0.00000000 
  -0.65445661    1.67277169               0.00000000               0.00000000               0.00000000 
   0.70740253    0.35370126               0.00000000               0.00000000               0.00000000 
   0.69926249    0.36184130               0.00000000               0.00000000               0.00000000 
   0.68024529    0.38085851               0.00000000               0.00000000               0.00000000 
   0.65072438    0.41037942               0.00000000               0.00000000               0.00000000 
   0.61118684    0.44991695               0.00000000               0.00000000               0.00000000 
   0.56228230    0.49882149               0.00000000               0.00000000               0.00000000 
   0.50481389    0.55628990               0.00000000               0.00000000               0.00000000 
   0.43972529    0.62137850               0.00000000               0.00000000               0.00000000 
   0.36808527    0.69301852               0.00000000               0.00000000               0.00000000 
   0.29107017    0.77003363               0.00000000               0.00000000               0.00000000 
   0.20994457    0.85115922               0.00000000               0.00000000               0.00000000 
   0.12604057    0.93506322               0.00000000               0.00000000               0.00000000 
   0.04073586    1.02036793               0.00000000               0.00000000               0.00000000 
  -0.04456884    1.10567264               0.00000000               0.00000000               0.00000000 
  -0.12847285    1.18957664               0.00000000               0.00000000               0.00000000 
  -0.20959844    1.27070224               0.00000000               0.00000000               0.00000000 
  -0.28661355    1.34771734               0.00000000               0.00000000               0.00000000 
  -0.35825357    1.41935736               0.00000000               0.00000000               0.00000000 
  -0.42334217    1.48444596               0.00000000               0.00000000               0.00000000 
  -0.48081058    1.54191437               0.00000000               0.00000000               0.00000000 
  -0.52971512    1.59081891               0.00000000               0.00000000               0.00000000 
  -0.56925265    1.63035644               0.00000000               0.00000000               0.00000000 
  -0.59877356    1.65987736               0.00000000               0.00000000               0.00000000 
  -0.61779077    1.67889456               0.00000000               0.00000000               0.00000000 
  -0.62593080    1.68703460               0.00000000               0.00000000               0.00000000 
   0.75168390    0.37584195               0.00000000               0.00000000               0.00000000 
   0.74354386    0.38398198               0.00000000               0.00000000               0.00000000 
   0.72452665    0.40299919               0.00000000               0.00000000               0.00000000 
   0.69500574    0.43252010               0.00000000               0.00000000               0.00000000 
   0.65546821    0.47205764               0.00000000               0.00000000               0.00000000 
   0.60656367    0.52096218               0.00000000               0.00000000               0.00000000 
   0.54909526    0.57843058               0.00000000               0.00000000               0.00000000 
   0.48400666    0.64351918               0.00000000               0.00000000               0.00000000 
   0.41236664    0.71515920               0.00000000               0.00000000               0.00000000 
   0.33535153    0.79217431               0.00000000               0.00000000               0.00000000 
   0.25422594    0.87329991               0.00000000               0.00000000               0.00000000 
   0.17032194    0.95720391               0.00000000               0.00000000               0.00000000 
   0.08501723    1.04250861               0.00000000               0.00000000               0.00000000 
  -0.00028748    1.12781332               0.00000000               0.00000000               0.00000000 
  -0.08419148    1.21171732               0.00000000               0.00000000               0.00000000 
  -0.16531708    1.29284292               0.00000000               0.00000000               0.00000000 
  -0.24233218    1.36985802               0.00000000               0.00000000               0.00000000 
  -0.31397220    1.44149805               0.00000000               0.00000000               0.00000000 
  -0.37906080    1.50658665               0.00000000               0.00000000               0.00000000 
  -0.43652921    1.56405505               0.00000000               0.00000000               0.00000000 
  -0.48543375    1.61295959               0.00000000               0.00000000               0.00000000 
  -0.52497128    1.65249713               0.00000000               0.00000000               0.00000000 
  -0.55449220    1.68201804               0.00000000               0.00000000               0.00000000 
  -0.57350940    1.70103524               0.00000000               0.00000000               0.00000000 
  -0.58164944    1.70917528               0.00000000               0.00000000               0.00000000 
   0.81099020    0.40549510               0.00000000               0.00000000               0.00000000 
   0.80285016    0.41363514               0.00000000               0.00000000               0.00000000 
   0.78383296    0.43265234               0.00000000               0.00000000               0.00000000 
   0.75431205    0.46217325               0.00000000               0.00000000               0.00000000 
   0.71477451    0.50171079               0.00000000               0.00000000               0.00000000 
   0.66586997    0.55061533               0.00000000               0.00000000               0.00000000 
   0.60840157    0.60808373               0.00000000               0.00000000               0.00000000 
   0.54331297    0.67317234               0.00000000               0.00000000               0.00000000 
   0.47167294    0.74481236               0.00000000               0.00000000               0.00000000 
   0.39465784    0.82182746               0.00000000               0.00000000               0.00000000 
   0.31353224    0.90295306               0.00000000               0.00000000               0.00000000 
   0.22962824    0.98685706               0.00000000               0.00000000               0.00000000 
   0.14432353    1.07216177               0.00000000               0.00000000               0.00000000 
   0.05901883    1.15746647               0.00000000               0.00000000               0.00000000 
  -0.02488518    1.24137048               0.00000000               0.00000000               0.00000000 
  -0.10601077    1.32249607               0.00000000               0.00000000               0.00000000 
  -0.18302588    1.39951118               0.00000000               0.00000000               0.00000000 
  -0.25466590    1.47115120               0.00000000               0.00000000               0.00000000 
  -0.31975450    1.53623980               0.00000000               0.00000000               0.00000000 
  -0.37722291    1.59370821               0.00000000               0.00000000               0.00000000 
  -0.42612744    1.64261274               0.00000000               0.00000000               0.00000000 
  -0.46566498    1.68215028               0.00000000               0.00000000               0.00000000 
  -0.49518589    1.71167119               0.00000000               0.00000000               0.00000000 
  -0.51420310    1.73068840               0.00000000               0.00000000               0.00000000 
  -0.52234313    1.73882843               0.00000000               0.00000000               0.00000000 
   0.88434701    0.44217350               0.00000000               0.00000000               0.00000000 
   0.87620697    0.45031354               0.00000000               0.00000000               0.00000000 
   0.85718977    0.46933074               0.00000000               0.00000000               0.00000000 
   0.82766885    0.49885166               0.00000000               0.00000000               0.00000000 
   0.78813132    0.53838919               0.00000000               0.00000000               0.00000000 
   0.73922678    0.58729373               0.00000000               0.00000000               0.00000000 
   0.68175837    0.64476214               0.00000000               0.00000000               0.00000000 
   0.61666977    0.70985074               0.00000000               0.00000000               0.00000000 
   0.54502975    0.78149076               0.00000000               0.00000000               0.00000000 
   0.46801465    0.85850587               0.00000000               0.00000000               0.00000000 
   0.38688905    0.93963146               0.00000000               0.00000000               0.00000000 
   0.30298505    1.02353546               0.00000000               0.00000000               0.00000000 
   0.21768034    1.10884017               0.00000000               0.00000000               0.00000000 
   0.13237563    1.19414488               0.00000000               0.00000000               0.00000000 
   0.04847163    1.27804888               0.00000000               0.00000000               0.00000000 
  -0.03265396    1.35917448               0.00000000               0.00000000               0.00000000 
  -0.10966907    1.43618958               0.00000000               0.00000000               0.00000000 
  -0.18130909    1.50782960               0.00000000               0.00000000               0.00000000 
  -0.24639769    1.57291820               0.00000000               0.00000000               0.00000000 
  -0.30386610    1.63038661               0.00000000               0.00000000               0.00000000 
  -0.35277064    1.67929115               0.00000000               0.00000000               0.00000000 
  -0.39230817    1.71882868               0.00000000               0.00000000               0.00000000 
  -0.42182908    1.74834960               0.00000000               0.00000000               0.00000000 
  -0.44084629    1.76736680               0.00000000               0.00000000               0.00000000 
  -0.44898633    1.77550684               0.00000000               0.00000000               0.00000000 
   0.97054962    0.48527481               0.00000000               0.00000000               0.00000000 
   0.96240958    0.49341485               0.00000000               0.00000000               0.00000000 
   0.94339238    0.51243205               0.00000000               0.00000000               0.00000000 
   0.91387147    0.54195296               0.00000000               0.00000000               0.00000000 
   0.87433393    0.58149050               0.00000000               0.00000000               0.00000000 
   0.82542939    0.63039504               0.00000000               0.00000000               0.00000000 
   0.76796098    0.68786344               0.00000000               0.00000000               0.00000000 
   0.70287238    0.75295204               0.00000000               0.00000000               0.00000000 
   0.63123236    0.82459207               0.00000000               0.00000000               0.00000000 
   0.55421726    0.90160717               0.00000000               0.00000000               0.00000000 
   0.47309166    0.98273277               0.00000000               0.00000000               0.00000000 
   0.38918766    1.06663677               0.00000000               0.00000000               0.00000000 
   0.30388295    1.15194148               0.00000000               0.00000000               0.00000000 
   0.21857824    1.23724618               0.00000000               0.00000000               0.00000000 
   0.13467424    1.32115019               0.00000000               0.00000000               0.00000000 
   0.05354865    1.40227578               0.00000000               0.00000000               0.00000000 
  -0.02346646    1.47929089               0.00000000               0.00000000               0.00000000 
  -0.09510648    1.55093091               0.00000000               0.00000000               0.00000000 
  -0.16019508    1.61601951               0.00000000               0.00000000               0.00000000 
  -0.21766349    1.67348792               0.00000000               0.00000000               0.00000000 
  -0.26656803    1.72239245               0.00000000               0.00000000               0.00000000 
  -0.30610556    1.76192999               0.00000000               0.00000000               0.00000000 
  -0.33562647    1.79145090               0.00000000               0.00000000               0.00000000 
  -0.35464368    1.81046811               0.00000000               0.00000000               0.00000000 
  -0.36278372    1.81860814               0.00000000               0.00000000               0.00000000 
   1.06818252    0.53409126               0.00000000               0.00000000               0.00000000 
   1.06004248    0.54223130               0.00000000               0.00000000               0.00000000 
   1.04102528    0.56124850               0.00000000               0.00000000               0.00000000 
   1.01150437    0.59076941               0.00000000               0.00000000               0.00000000 
   0.97196683    0.63030695               0.00000000               0.00000000               0.00000000 
   0.92306229    0.67921149               0.00000004               0.00000004               0.00000000 
   0.86559389    0.73667989               0.00000256               0.00000256               0.00000000 
   0.80050528    0.80176849               0.00001349               0.00001349               0.00000000 
   0.72886526    0.87340852               0.00000167               0.00000167               0.00000000 
   0.65185016    0.95042362               0.00000000               0.00000000               0.00000000 
   0.57072456    1.03154922               0.00000000               0.00000000               0.00000000 
   0.48682056    1.11545322               0.00000000               0.00000000               0.00000000 
   0.40151585    1.20075793               0.00000000               0.00000000               0.00000000 
   0.31621115    1.28606263               0.00000000               0.00000000               0.00000000 
   0.23230714    1.36996664               0.00000000               0.00000000               0.00000000 
   0.15118155    1.45109223               0.00000000               0.00000000               0.00000000 
   0.07416644    1.52810734               0.00000000               0.00000000               0.00000000 
   0.00252642    1.59974736               0.00000000               0.00000000               0.00000000 
  -0.06256218    1.66483596               0.00000000               0.00000000               0.00000000 
  -0.12003059    1.72230437               0.00000000               0.00000000               0.00000000 
  -0.16893512    1.77120890               0.00000000               0.00000000               0.00000000 
  -0.20847266    1.81074644               0.00000000               0.00000000               0.00000000 
  -0.23799357    1.84026735               0.00000000               0.00000000               0.00000000 
  -0.25701078    1.85928456               0.00000000               0.00000000               0.00000000 
  -0.26515081    1.86742459               0.00000000               0.00000000               0.00000000 
   1.17564255    0.58782128               0.00000000               0.00000000               0.00000000 
   1.16750252    0.59596131               0.00000000               0.00000000               0.00000000 
   1.14848531    0.61497852               0.00000000               0.00000000               0.00000000 
   1.11896440    0.64449943               0.00000000               0.00000000               0.00000000 
   1.07942686    0.68403697               0.00000006               0.00000006               0.00000000 
   1.03052232    0.73294150               0.00005300               0.00005300               0.00000000 
   0.97305392    0.79040991               0.01322496               0.01322496               0.00000000 
   0.90796532    0.85549851               0.28222731               0.28222731               0.00000000 
   0.83632530    0.92713853               0.16292419               0.16292419               0.00000000 
   0.75931019    1.00415364               0.00092604               0.00092604               0.00000000 
   0.67818459    1.08527923               0.00000002               0.00000002               0.00000000 
   0.59428059    1.16918324               0.00000000               0.00000000               0.00000000 
   0.50897589    1.25448794               0.00000000               0.00000000               0.00000000 
   0.42367118    1.33979265               0.00000000               0.00000000               0.00000000 
   0.33976718    1.42369665               0.00000000               0.00000000               0.00000000 
   0.25864158    1.50482225               0.00000000               0.00000000               0.00000000 
   0.18162648    1.58183735               0.00000000               0.00000000               0.00000000 
   0.10998645    1.65347737               0.00000000               0.00000000               0.00000000 
   0.04489785    1.71856598               0.00000000               0.00000000               0.00000000 
  -0.01257055    1.77603438               0.00000000               0.00000000               0.00000000 
  -0.06147509    1.82493892               0.00000000               0.00000000               0.00000000 
  -0.10101263    1.86447646               0.00000000               0.00000000               0.00000000 
  -0.13053354    1.89399737               0.00000000               0.00000000               0.00000000 
  -0.14955074    1.91301457               0.00000000               0.00000000               0.00000000 
  -0.15769078    1.92115461               0.00000000               0.00000000               0.00000000 
   1.29116521    0.64558260               0.00000000               0.00000000               0.00000000 
   1.28302517    0.65372264               0.00000000               0.00000000               0.00000000 
   1.26400797    0.67273985               0.00000000               0.00000000               0.00000000 
   1.23448706    0.70226076               0.00000000               0.00000000               0.00000000 
   1.19494952    0.74179829               0.00000008               0.00000008               0.00000000 
   1.14604498    0.79070283               0.00022004               0.00022004               0.00000000 
   1.08857657    0.84817124               0.20713463               0.20713463               0.00000000 
   1.02348797    0.91325984              19.88691778              19.88691778               0.00000000 
   0.95184795    0.98489986              60.08999785              60.08999785               0.00000000 
   0.87483285    1.06191497               2.02407816               2.02407816               0.00000000 
   0.79370725    1.14304056               0.00033604               0.00033604               0.00000000 
   0.70980325    1.22694456               0.00000000               0.00000000               0.00000000 
   0.62449854    1.31224927               0.00000000               0.00000000               0.00000000 
   0.53919384    1.39755398               0.00000000               0.00000000               0.00000000 
   0.45528983    1.48145798               0.00000000               0.00000000               0.00000000 
   0.37416424    1.56258358               0.00000000               0.00000000               0.00000000 
   0.29714913    1.63959868               0.00000000               0.00000000               0.00000000 
   0.22550911    1.71123870               0.00000000               0.00000000               0.00000000 
   0.16042051    1.77632730               0.00000000               0.00000000               0.00000000 
   0.10295210    1.83379571               0.00000000               0.00000000               0.00000000 
   0.05404756    1.88270025               0.00000000               0.00000000               0.00000000 
   0.01451003    1.92223778               0.00000000               0.00000000               0.00000000 
  -0.01501088    1.95175870               0.00000000               0.00000000               0.00000000 
  -0.03402809    1.97077590               0.00000000               0.00000000               0.00000000 
  -0.04216812    1.97891594               0.00000000               0.00000000               0.00000000 
   1.41285360    0.70642680               0.00000000               0.00000000               0.00000000 
   1.40471357    0.71456684               0.00000000               0.00000000               0.00000000 
   1.38569636    0.73358404               0.00000000               0.00000000               0.00000000 
   1.35617545    0.76310495               0.00000000               0.00000000               0.00000000 
   1.31663791    0.80264249               0.00000000               0.00000000               0.00000000 
   1.26773338    0.85154703               0.00000072               0.00000072               0.00000000 
   1.21026497    0.90901544               0.00275941               0.00275941               0.00000000 
   1.14517637    0.97410404               1.29151309               1.29151309               0.00000000 
   1.07353635    1.04574406              22.31251181              22.31251181               0.00000000 
   0.99652124    1.12275916               4.89780639               4.89780639               0.00000000 
   0.91539565    1.20388476               0.00585647               0.00585647               0.00000000 
   0.83149164    1.28778876               0.00000002               0.00000002               0.00000000 
   0.74618694    1.37309347               0.00000000               0.00000000               0.00000000 
   0.66088223    1.45839817               0.00000000               0.00000000               0.00000000 
   0.57697823    1.54230218               0.00000000               0.00000000               0.00000000 
   0.49585263    1.62342777               0.00000000               0.00000000               0.00000000 
   0.41883753    1.70044288               0.00000000               0.00000000               0.00000000 
   0.34719750    1.77208290               0.00000000               0.00000000               0.00000000 
   0.28210890    1.83717150               0.00000000               0.00000000               0.00000000 
   0.22464050    1.89463991               0.00000000               0.00000000               0.00000000 
   0.17573596    1.94354445               0.00000000               0.00000000               0.00000000 
   0.13619842    1.98308198               0.00000000               0.00000000               0.00000000 
   0.10667751    2.01260289               0.00000000               0.00000000               0.00000000 
   0.08766031    2.03162010               0.00000000               0.00000000               0.00000000 
   0.07952027    2.03976013               0.00000000               0.00000000               0.00000000 
   1.53870961    0.76935480               0.00000000               0.00000000               0.00000000 
   1.53056957    0.77749484               0.00000000               0.00000000               0.00000000 
   1.51155237    0.79651204               0.00000000               0.00000000               0.00000000 
   1.48203145    0.82603296               0.00000000               0.00000000               0.00000000 
   1.44249392    0.86557049               0.00000000               0.00000000               0.00000000 
   1.39358938    0.91447503               0.00000000               0.00000000               0.00000000 
   1.33612097    0.97194344               0.00000001               0.00000001               0.00000000 
   1.27103237    1.03703204               0.00003165               0.00003165               0.00000000 
   1.19939235    1.10867206               0.00331859               0.00331859               0.00000000 
   1.12237725    1.18568717               0.00506190               0.00506190               0.00000000 
   1.04125165    1.26681276               0.00004664               0.00004664               0.00000000 
   0.95734765    1.35071676               0.00000000               0.00000000               0.00000000 