 TITLE = "ADVECTION DIFFUSION SOLUTION" 
 VARIABLES = "x","y","P","U","V"
 ZONE I= 29,J= 29, F=POINT
  -1.00000000   -1.00000000               0.00000001               0.00000001               0.00000000 
  -1.00000000   -0.99097299               0.00000001               0.00000001               0.00000000 
  -1.00000000   -0.96984581               0.00000001               0.00000001               0.00000000 
  -1.00000000   -0.93694272               0.00000002               0.00000002               0.00000000 
  -1.00000000   -0.89266572               0.00000003               0.00000003               0.00000000 
  -1.00000000   -0.83755274               0.00000004               0.00000004               0.00000000 
  -1.00000000   -0.77227290               0.00000008               0.00000008               0.00000000 
  -1.00000000   -0.69761866               0.00000014               0.00000014               0.00000000 
  -1.00000000   -0.61449625               0.00000027               0.00000027               0.00000000 
  -1.00000000   -0.52391467               0.00000051               0.00000051               0.00000000 
  -1.00000000   -0.42697347               0.00000098               0.00000098               0.00000000 
  -1.00000000   -0.32484938               0.00000184               0.00000184               0.00000000 
  -1.00000000   -0.21878206               0.00000332               0.00000332               0.00000000 
  -1.00000000   -0.11005901               0.00000568               0.00000568               0.00000000 
  -1.00000000    0.00000000               0.00000914               0.00000914               0.00000000 
  -1.00000000    0.11005901               0.00001371               0.00001371               0.00000000 
  -1.00000000    0.21878206               0.00001912               0.00001912               0.00000000 
  -1.00000000    0.32484938               0.00002479               0.00002479               0.00000000 
  -1.00000000    0.42697347               0.00002995               0.00002995               0.00000000 
  -1.00000000    0.52391467               0.00003392               0.00003392               0.00000000 
  -1.00000000    0.61449625               0.00003629               0.00003629               0.00000000 
  -1.00000000    0.69761866               0.00003706               0.00003706               0.00000000 
  -1.00000000    0.77227290               0.00003651               0.00003651               0.00000000 
  -1.00000000    0.83755274               0.00003511               0.00003511               0.00000000 
  -1.00000000    0.89266572               0.00003333               0.00003333               0.00000000 
  -1.00000000    0.93694272               0.00003157               0.00003157               0.00000000 
  -1.00000000    0.96984581               0.00003010               0.00003010               0.00000000 
  -1.00000000    0.99097299               0.00002909               0.00002909               0.00000000 
  -1.00000000    1.00000000               0.00002865               0.00002865               0.00000000 
  -0.99097299   -1.00000000               0.00000001               0.00000001               0.00000000 
  -0.99097299   -0.99097299               0.00000001               0.00000001               0.00000000 
  -0.99097299   -0.96984581               0.00000001               0.00000001               0.00000000 
  -0.99097299   -0.93694272               0.00000002               0.00000002               0.00000000 
  -0.99097299   -0.89266572               0.00000003               0.00000003               0.00000000 
  -0.99097299   -0.83755274               0.00000005               0.00000005               0.00000000 
  -0.99097299   -0.77227290               0.00000008               0.00000008               0.00000000 
  -0.99097299   -0.69761866               0.00000015               0.00000015               0.00000000 
  -0.99097299   -0.61449625               0.00000029               0.00000029               0.00000000 
  -0.99097299   -0.52391467               0.00000056               0.00000056               0.00000000 
  -0.99097299   -0.42697347               0.00000107               0.00000107               0.00000000 
  -0.99097299   -0.32484938               0.00000201               0.00000201               0.00000000 
  -0.99097299   -0.21878206               0.00000363               0.00000363               0.00000000 
  -0.99097299   -0.11005901               0.00000620               0.00000620               0.00000000 
  -0.99097299    0.00000000               0.00000997               0.00000997               0.00000000 
  -0.99097299    0.11005901               0.00001496               0.00001496               0.00000000 
  -0.99097299    0.21878206               0.00002087               0.00002087               0.00000000 
  -0.99097299    0.32484938               0.00002705               0.00002705               0.00000000 
  -0.99097299    0.42697347               0.00003269               0.00003269               0.00000000 
  -0.99097299    0.52391467               0.00003702               0.00003702               0.00000000 
  -0.99097299    0.61449625               0.00003961               0.00003961               0.00000000 
  -0.99097299    0.69761866               0.00004044               0.00004044               0.00000000 
  -0.99097299    0.77227290               0.00003984               0.00003984               0.00000000 
  -0.99097299    0.83755274               0.00003832               0.00003832               0.00000000 
  -0.99097299    0.89266572               0.00003637               0.00003637               0.00000000 
  -0.99097299    0.93694272               0.00003445               0.00003445               0.00000000 
  -0.99097299    0.96984581               0.00003285               0.00003285               0.00000000 
  -0.99097299    0.99097299               0.00003175               0.00003175               0.00000000 
  -0.99097299    1.00000000               0.00003127               0.00003127               0.00000000 
  -0.96984581   -1.00000000               0.00000001               0.00000001               0.00000000 
  -0.96984581   -0.99097299               0.00000001               0.00000001               0.00000000 
  -0.96984581   -0.96984581               0.00000002               0.00000002               0.00000000 
  -0.96984581   -0.93694272               0.00000002               0.00000002               0.00000000 
  -0.96984581   -0.89266572               0.00000004               0.00000004               0.00000000 
  -0.96984581   -0.83755274               0.00000006               0.00000006               0.00000000 
  -0.96984581   -0.77227290               0.00000010               0.00000010               0.00000000 
  -0.96984581   -0.69761866               0.00000019               0.00000019               0.00000000 
  -0.96984581   -0.61449625               0.00000036               0.00000036               0.00000000 
  -0.96984581   -0.52391467               0.00000069               0.00000069               0.00000000 
  -0.96984581   -0.42697347               0.00000132               0.00000132               0.00000000 
  -0.96984581   -0.32484938               0.00000246               0.00000246               0.00000000 
  -0.96984581   -0.21878206               0.00000444               0.00000444               0.00000000 
  -0.96984581   -0.11005901               0.00000760               0.00000760               0.00000000 
  -0.96984581    0.00000000               0.00001222               0.00001222               0.00000000 
  -0.96984581    0.11005901               0.00001833               0.00001833               0.00000000 
  -0.96984581    0.21878206               0.00002556               0.00002556               0.00000000 
  -0.96984581    0.32484938               0.00003314               0.00003314               0.00000000 
  -0.96984581    0.42697347               0.00004004               0.00004004               0.00000000 
  -0.96984581    0.52391467               0.00004534               0.00004534               0.00000000 
  -0.96984581    0.61449625               0.00004852               0.00004852               0.00000000 
  -0.96984581    0.69761866               0.00004954               0.00004954               0.00000000 
  -0.96984581    0.77227290               0.00004881               0.00004881               0.00000000 
  -0.96984581    0.83755274               0.00004693               0.00004693               0.00000000 
  -0.96984581    0.89266572               0.00004456               0.00004456               0.00000000 
  -0.96984581    0.93694272               0.00004220               0.00004220               0.00000000 
  -0.96984581    0.96984581               0.00004023               0.00004024               0.00000000 
  -0.96984581    0.99097299               0.00003890               0.00003890               0.00000000 
  -0.96984581    1.00000000               0.00003831               0.00003831               0.00000000 
  -0.93694272   -1.00000000               0.00000002               0.00000002               0.00000000 
  -0.93694272   -0.99097299               0.00000002               0.00000002               0.00000000 
  -0.93694272   -0.96984581               0.00000002               0.00000002               0.00000000 
  -0.93694272   -0.93694272               0.00000003               0.00000003               0.00000000 
  -0.93694272   -0.89266572               0.00000005               0.00000005               0.00000000 
  -0.93694272   -0.83755274               0.00000008               0.00000008               0.00000000 
  -0.93694272   -0.77227290               0.00000014               0.00000014               0.00000000 
  -0.93694272   -0.69761866               0.00000025               0.00000025               0.00000000 
  -0.93694272   -0.61449625               0.00000049               0.00000049               0.00000000 
  -0.93694272   -0.52391467               0.00000094               0.00000094               0.00000000 
  -0.93694272   -0.42697347               0.00000179               0.00000179               0.00000000 
  -0.93694272   -0.32484938               0.00000336               0.00000336               0.00000000 
  -0.93694272   -0.21878206               0.00000606               0.00000606               0.00000000 
  -0.93694272   -0.11005901               0.00001037               0.00001037               0.00000000 
  -0.93694272    0.00000000               0.00001667               0.00001667               0.00000000 
  -0.93694272    0.11005901               0.00002501               0.00002501               0.00000000 
  -0.93694272    0.21878206               0.00003488               0.00003488               0.00000000 
  -0.93694272    0.32484938               0.00004522               0.00004522               0.00000000 
  -0.93694272    0.42697347               0.00005463               0.00005463               0.00000000 
  -0.93694272    0.52391467               0.00006187               0.00006187               0.00000000 
  -0.93694272    0.61449625               0.00006621               0.00006621               0.00000000 
  -0.93694272    0.69761866               0.00006760               0.00006760               0.00000000 
  -0.93694272    0.77227290               0.00006660               0.00006660               0.00000000 
  -0.93694272    0.83755274               0.00006405               0.00006405               0.00000000 
  -0.93694272    0.89266572               0.00006080               0.00006080               0.00000000 
  -0.93694272    0.93694272               0.00005758               0.00005758               0.00000000 
  -0.93694272    0.96984581               0.00005491               0.00005491               0.00000000 
  -0.93694272    0.99097299               0.00005308               0.00005308               0.00000000 
  -0.93694272    1.00000000               0.00005227               0.00005227               0.00000000 
  -0.89266572   -1.00000000               0.00000003               0.00000003               0.00000000 
  -0.89266572   -0.99097299               0.00000003               0.00000003               0.00000000 
  -0.89266572   -0.96984581               0.00000004               0.00000004               0.00000000 
  -0.89266572   -0.93694272               0.00000005               0.00000005               0.00000000 
  -0.89266572   -0.89266572               0.00000007               0.00000007               0.00000000 
  -0.89266572   -0.83755274               0.00000012               0.00000012               0.00000000 
  -0.89266572   -0.77227290               0.00000021               0.00000021               0.00000000 
  -0.89266572   -0.69761866               0.00000038               0.00000038               0.00000000 
  -0.89266572   -0.61449625               0.00000073               0.00000073               0.00000000 
  -0.89266572   -0.52391467               0.00000141               0.00000141               0.00000000 
  -0.89266572   -0.42697347               0.00000270               0.00000270               0.00000000 
  -0.89266572   -0.32484938               0.00000506               0.00000506               0.00000000 
  -0.89266572   -0.21878206               0.00000912               0.00000912               0.00000000 
  -0.89266572   -0.11005901               0.00001560               0.00001560               0.00000000 
  -0.89266572    0.00000000               0.00002508               0.00002508               0.00000000 
  -0.89266572    0.11005901               0.00003763               0.00003763               0.00000000 
  -0.89266572    0.21878206               0.00005249               0.00005249               0.00000000 
  -0.89266572    0.32484938               0.00006804               0.00006804               0.00000000 
  -0.89266572    0.42697347               0.00008221               0.00008221               0.00000000 
  -0.89266572    0.52391467               0.00009310               0.00009310               0.00000000 
  -0.89266572    0.61449625               0.00009962               0.00009962               0.00000000 
  -0.89266572    0.69761866               0.00010172               0.00010172               0.00000000 
  -0.89266572    0.77227290               0.00010021               0.00010021               0.00000000 
  -0.89266572    0.83755274               0.00009637               0.00009637               0.00000000 
  -0.89266572    0.89266572               0.00009148               0.00009148               0.00000000 
  -0.89266572    0.93694272               0.00008664               0.00008664               0.00000000 
  -0.89266572    0.96984581               0.00008261               0.00008261               0.00000000 
  -0.89266572    0.99097299               0.00007986               0.00007986               0.00000000 
  -0.89266572    1.00000000               0.00007866               0.00007866               0.00000000 
  -0.83755274   -1.00000000               0.00000004               0.00000004               0.00000000 
  -0.83755274   -0.99097299               0.00000005               0.00000005               0.00000000 
  -0.83755274   -0.96984581               0.00000006               0.00000006               0.00000000 
  -0.83755274   -0.93694272               0.00000008               0.00000008               0.00000000 
  -0.83755274   -0.89266572               0.00000012               0.00000012               0.00000000 
  -0.83755274   -0.83755274               0.00000019               0.00000019               0.00000000 
  -0.83755274   -0.77227290               0.00000034               0.00000034               0.00000000 
  -0.83755274   -0.69761866               0.00000063               0.00000063               0.00000000 
  -0.83755274   -0.61449625               0.00000120               0.00000120               0.00000000 
  -0.83755274   -0.52391467               0.00000231               0.00000231               0.00000000 
  -0.83755274   -0.42697347               0.00000442               0.00000442               0.00000000 
  -0.83755274   -0.32484938               0.00000828               0.00000828               0.00000000 
  -0.83755274   -0.21878206               0.00001493               0.00001493               0.00000000 
  -0.83755274   -0.11005901               0.00002554               0.00002554               0.00000000 
  -0.83755274    0.00000000               0.00004106               0.00004106               0.00000000 
  -0.83755274    0.11005901               0.00006160               0.00006161               0.00000000 
  -0.83755274    0.21878206               0.00008593               0.00008593               0.00000000 
  -0.83755274    0.32484938               0.00011139               0.00011139               0.00000000 
  -0.83755274    0.42697347               0.00013458               0.00013458               0.00000000 
  -0.83755274    0.52391467               0.00015240               0.00015240               0.00000000 
  -0.83755274    0.61449625               0.00016308               0.00016308               0.00000000 
  -0.83755274    0.69761866               0.00016652               0.00016652               0.00000000 
  -0.83755274    0.77227290               0.00016405               0.00016405               0.00000000 
  -0.83755274    0.83755274               0.00015776               0.00015776               0.00000000 
  -0.83755274    0.89266572               0.00014976               0.00014976               0.00000000 
  -0.83755274    0.93694272               0.00014184               0.00014184               0.00000000 
  -0.83755274    0.96984581               0.00013524               0.00013524               0.00000000 
  -0.83755274    0.99097299               0.00013074               0.00013074               0.00000000 
  -0.83755274    1.00000000               0.00012876               0.00012876               0.00000000 
  -0.77227290   -1.00000000               0.00000008               0.00000008               0.00000000 
  -0.77227290   -0.99097299               0.00000008               0.00000008               0.00000000 
  -0.77227290   -0.96984581               0.00000010               0.00000010               0.00000000 
  -0.77227290   -0.93694272               0.00000014               0.00000014               0.00000000 
  -0.77227290   -0.89266572               0.00000021               0.00000021               0.00000000 
  -0.77227290   -0.83755274               0.00000034               0.00000034               0.00000000 
  -0.77227290   -0.77227290               0.00000060               0.00000060               0.00000000 
  -0.77227290   -0.69761866               0.00000110               0.00000110               0.00000000 
  -0.77227290   -0.61449625               0.00000210               0.00000210               0.00000000 
  -0.77227290   -0.52391467               0.00000404               0.00000404               0.00000000 
  -0.77227290   -0.42697347               0.00000775               0.00000775               0.00000000 
  -0.77227290   -0.32484938               0.00001452               0.00001452               0.00000000 
  -0.77227290   -0.21878206               0.00002617               0.00002617               0.00000000 
  -0.77227290   -0.11005901               0.00004477               0.00004477               0.00000000 
  -0.77227290    0.00000000               0.00007199               0.00007199               0.00000000 
  -0.77227290    0.11005901               0.00010800               0.00010800               0.00000000 
  -0.77227290    0.21878206               0.00015063               0.00015064               0.00000000 
  -0.77227290    0.32484938               0.00019527               0.00019527               0.00000000 
  -0.77227290    0.42697347               0.00023592               0.00023592               0.00000000 
  -0.77227290    0.52391467               0.00026717               0.00026718               0.00000000 
  -0.77227290    0.61449625               0.00028589               0.00028589               0.00000000 
  -0.77227290    0.69761866               0.00029192               0.00029192               0.00000000 
  -0.77227290    0.77227290               0.00028760               0.00028760               0.00000000 
  -0.77227290    0.83755274               0.00027656               0.00027656               0.00000000 
  -0.77227290    0.89266572               0.00026255               0.00026255               0.00000000 
  -0.77227290    0.93694272               0.00024866               0.00024866               0.00000000 
  -0.77227290    0.96984581               0.00023709               0.00023709               0.00000000 
  -0.77227290    0.99097299               0.00022920               0.00022920               0.00000000 
  -0.77227290    1.00000000               0.00022573               0.00022573               0.00000000 
  -0.69761866   -1.00000000               0.00000014               0.00000014               0.00000000 
  -0.69761866   -0.99097299               0.00000015               0.00000015               0.00000000 
  -0.69761866   -0.96984581               0.00000019               0.00000019               0.00000000 
  -0.69761866   -0.93694272               0.00000025               0.00000025               0.00000000 
  -0.69761866   -0.89266572               0.00000038               0.00000038               0.00000000 
  -0.69761866   -0.83755274               0.00000063               0.00000063               0.00000000 
  -0.69761866   -0.77227290               0.00000110               0.00000110               0.00000000 
  -0.69761866   -0.69761866               0.00000203               0.00000203               0.00000000 
  -0.69761866   -0.61449625               0.00000386               0.00000386               0.00000000 
  -0.69761866   -0.52391467               0.00000745               0.00000745               0.00000000 
  -0.69761866   -0.42697347               0.00001429               0.00001429               0.00000000 
  -0.69761866   -0.32484938               0.00002678               0.00002678               0.00000000 
  -0.69761866   -0.21878206               0.00004827               0.00004827               0.00000000 
  -0.69761866   -0.11005901               0.00008258               0.00008258               0.00000000 
  -0.69761866    0.00000000               0.00013277               0.00013277               0.00000000 
  -0.69761866    0.11005901               0.00019919               0.00019919               0.00000000 
  -0.69761866    0.21878206               0.00027783               0.00027783               0.00000000 
  -0.69761866    0.32484938               0.00036015               0.00036015               0.00000000 
  -0.69761866    0.42697347               0.00043513               0.00043513               0.00000000 
  -0.69761866    0.52391467               0.00049277               0.00049277               0.00000000 
  -0.69761866    0.61449625               0.00052729               0.00052729               0.00000000 
  -0.69761866    0.69761866               0.00053841               0.00053841               0.00000000 
  -0.69761866    0.77227290               0.00053044               0.00053044               0.00000000 
  -0.69761866    0.83755274               0.00051008               0.00051008               0.00000000 
  -0.69761866    0.89266572               0.00048424               0.00048424               0.00000000 
  -0.69761866    0.93694272               0.00045862               0.00045862               0.00000000 
  -0.69761866    0.96984581               0.00043729               0.00043729               0.00000000 
  -0.69761866    0.99097299               0.00042273               0.00042273               0.00000000 
  -0.69761866    1.00000000               0.00041634               0.00041634               0.00000000 
  -0.61449625   -1.00000000               0.00000027               0.00000027               0.00000000 
  -0.61449625   -0.99097299               0.00000029               0.00000029               0.00000000 
  -0.61449625   -0.96984581               0.00000036               0.00000036               0.00000000 
  -0.61449625   -0.93694272               0.00000049               0.00000049               0.00000000 
  -0.61449625   -0.89266572               0.00000073               0.00000073               0.00000000 
  -0.61449625   -0.83755274               0.00000120               0.00000120               0.00000000 
  -0.61449625   -0.77227290               0.00000210               0.00000210               0.00000000 
  -0.61449625   -0.69761866               0.00000386               0.00000386               0.00000000 
  -0.61449625   -0.61449625               0.00000736               0.00000736               0.00000000 
  -0.61449625   -0.52391467               0.00001419               0.00001419               0.00000000 
  -0.61449625   -0.42697347               0.00002722               0.00002722               0.00000000 
  -0.61449625   -0.32484938               0.00005100               0.00005100               0.00000000 
  -0.61449625   -0.21878206               0.00009191               0.00009191               0.00000000 
  -0.61449625   -0.11005901               0.00015726               0.00015726               0.00000000 
  -0.61449625    0.00000000               0.00025283               0.00025284               0.00000000 
  -0.61449625    0.11005901               0.00037931               0.00037932               0.00000000 
  -0.61449625    0.21878206               0.00052906               0.00052907               0.00000000 
  -0.61449625    0.32484938               0.00068583               0.00068583               0.00000000 
  -0.61449625    0.42697347               0.00082861               0.00082862               0.00000000 
  -0.61449625    0.52391467               0.00093838               0.00093838               0.00000000 
  -0.61449625    0.61449625               0.00100410               0.00100411               0.00000000 
  -0.61449625    0.69761866               0.00102528               0.00102529               0.00000000 
  -0.61449625    0.77227290               0.00101011               0.00101011               0.00000000 
  -0.61449625    0.83755274               0.00097135               0.00097135               0.00000000 
  -0.61449625    0.89266572               0.00092213               0.00092213               0.00000000 
  -0.61449625    0.93694272               0.00087335               0.00087335               0.00000000 
  -0.61449625    0.96984581               0.00083272               0.00083272               0.00000000 
  -0.61449625    0.99097299               0.00080500               0.00080500               0.00000000 
  -0.61449625    1.00000000               0.00079282               0.00079282               0.00000000 
  -0.52391467   -1.00000000               0.00000051               0.00000051               0.00000000 
  -0.52391467   -0.99097299               0.00000056               0.00000056               0.00000000 
  -0.52391467   -0.96984581               0.00000069               0.00000069               0.00000000 
  -0.52391467   -0.93694272               0.00000094               0.00000094               0.00000000 
  -0.52391467   -0.89266572               0.00000141               0.00000141               0.00000000 
  -0.52391467   -0.83755274               0.00000231               0.00000231               0.00000000 
  -0.52391467   -0.77227290               0.00000404               0.00000404               0.00000000 
  -0.52391467   -0.69761866               0.00000745               0.00000745               0.00000000 
  -0.52391467   -0.61449625               0.00001419               0.00001419               0.00000000 
  -0.52391467   -0.52391467               0.00002738               0.00002738               0.00000000 
  -0.52391467   -0.42697347               0.00005250               0.00005251               0.00000000 
  -0.52391467   -0.32484938               0.00009837               0.00009838               0.00000000 
  -0.52391467   -0.21878206               0.00017729               0.00017729               0.00000000 
  -0.52391467   -0.11005901               0.00030333               0.00030334               0.00000000 
  -0.52391467    0.00000000               0.00048769               0.00048770               0.00000000 
  -0.52391467    0.11005901               0.00073166               0.00073166               0.00000000 
  -0.52391467    0.21878206               0.00102051               0.00102052               0.00000000 
  -0.52391467    0.32484938               0.00132290               0.00132291               0.00000000 
  -0.52391467    0.42697347               0.00159832               0.00159833               0.00000000 
  -0.52391467    0.52391467               0.00181004               0.00181004               0.00000000 
  -0.52391467    0.61449625               0.00193682               0.00193683               0.00000000 
  -0.52391467    0.69761866               0.00197767               0.00197768               0.00000000 
  -0.52391467    0.77227290               0.00194841               0.00194841               0.00000000 
  -0.52391467    0.83755274               0.00187364               0.00187363               0.00000000 
  -0.52391467    0.89266572               0.00177870               0.00177870               0.00000000 
  -0.52391467    0.93694272               0.00168461               0.00168461               0.00000000 