 TITLE = "ADVECTION DIFFUSION SOLUTION" 
 VARIABLES = "x","y","P","U","V"
 ZONE I= 23,J= 23, F=POINT
  -1.50000000   -0.31259035               0.00000000               0.00000000               0.00000000 
  -1.50000000   -0.30806628               0.00000000               0.00000000               0.00000000 
  -1.50000000   -0.29751035               0.00000000               0.00000000               0.00000000 
  -1.50000000   -0.28116206               0.00000000               0.00000000               0.00000000 
  -1.50000000   -0.25934092               0.00000000               0.00000000               0.00000000 
  -1.50000000   -0.23247189               0.00000000               0.00000000               0.00000000 
  -1.50000000   -0.20107801               0.00000000               0.00000000               0.00000000 
  -1.50000000   -0.16577034               0.00000000               0.00000000               0.00000000 
  -1.50000000   -0.12723613               0.00000000               0.00000000               0.00000000 
  -1.50000000   -0.08622541               0.00000000               0.00000000               0.00000000 
  -1.50000000   -0.04353640               0.00000000               0.00000000               0.00000000 
  -1.50000000    0.00000000               0.00000000               0.00000000               0.00000000 
  -1.50000000    0.04353640               0.00000000               0.00000000               0.00000000 
  -1.50000000    0.08622541               0.00000000               0.00000000               0.00000000 
  -1.50000000    0.12723613               0.00000000               0.00000000               0.00000000 
  -1.50000000    0.16577034               0.00000000               0.00000000               0.00000000 
  -1.50000000    0.20107801               0.00000000               0.00000000               0.00000000 
  -1.50000000    0.23247189               0.00000000               0.00000000               0.00000000 
  -1.50000000    0.25934092               0.00000000               0.00000000               0.00000000 
  -1.50000000    0.28116206               0.00000000               0.00000000               0.00000000 
  -1.50000000    0.29751035               0.00000000               0.00000000               0.00000000 
  -1.50000000    0.30806628               0.00000000               0.00000000               0.00000000 
  -1.50000000    0.31259035               0.00000000               0.00000000               0.00000000 
  -1.47829073   -0.31477373               0.00000000               0.00000000               0.00000000 
  -1.47829073   -0.31021806               0.00000000               0.00000000               0.00000000 
  -1.47829073   -0.29958840              -0.00000000               0.00000000               0.00000000 
  -1.47829073   -0.28312592              -0.00000000               0.00000000               0.00000000 
  -1.47829073   -0.26115237               0.00000000               0.00000000               0.00000000 
  -1.47829073   -0.23409566               0.00000001               0.00000000               0.00000000 
  -1.47829073   -0.20248250               0.00000001               0.00000000               0.00000000 
  -1.47829073   -0.16692821               0.00000000               0.00000000               0.00000000 
  -1.47829073   -0.12812485              -0.00000001               0.00000000               0.00000000 
  -1.47829073   -0.08682767               0.00000004               0.00000000               0.00000000 
  -1.47829073   -0.04384049               0.00000021               0.00000000               0.00000000 
  -1.47829073    0.00000000               0.00000049               0.00000000               0.00000000 
  -1.47829073    0.04384049               0.00000069               0.00000001               0.00000000 
  -1.47829073    0.08682767               0.00000059               0.00000001               0.00000000 
  -1.47829073    0.12812485               0.00000024               0.00000001               0.00000000 
  -1.47829073    0.16692821              -0.00000011               0.00000001               0.00000000 
  -1.47829073    0.20248250              -0.00000024               0.00000001               0.00000000 
  -1.47829073    0.23409566              -0.00000014               0.00000001               0.00000000 
  -1.47829073    0.26115237               0.00000001               0.00000001               0.00000000 
  -1.47829073    0.28312592               0.00000009               0.00000001               0.00000000 
  -1.47829073    0.29958840               0.00000008               0.00000001               0.00000000 
  -1.47829073    0.31021806               0.00000003               0.00000001               0.00000000 
  -1.47829073    0.31477373               0.00000001               0.00000001               0.00000000 
  -1.42763693   -0.32003610               0.00000000               0.00000000               0.00000000 
  -1.42763693   -0.31540427               0.00000000               0.00000000               0.00000000 
  -1.42763693   -0.30459690               0.00000001               0.00000000               0.00000000 
  -1.42763693   -0.28785921               0.00000001               0.00000000               0.00000000 
  -1.42763693   -0.26551830               0.00000000               0.00000000               0.00000000 
  -1.42763693   -0.23800926              -0.00000001               0.00000000               0.00000000 
  -1.42763693   -0.20586759              -0.00000001               0.00000001               0.00000000 
  -1.42763693   -0.16971891              -0.00000001               0.00000001               0.00000000 
  -1.42763693   -0.13026683              -0.00000000               0.00000001               0.00000000 
  -1.42763693   -0.08827925              -0.00000011               0.00000001               0.00000000 
  -1.42763693   -0.04457341              -0.00000042               0.00000001               0.00000000 
  -1.42763693    0.00000000              -0.00000088               0.00000001               0.00000000 
  -1.42763693    0.04457341              -0.00000118               0.00000001               0.00000000 
  -1.42763693    0.08827925              -0.00000102               0.00000001               0.00000000 
  -1.42763693    0.13026683              -0.00000045               0.00000001               0.00000000 
  -1.42763693    0.16971891               0.00000013               0.00000001               0.00000000 
  -1.42763693    0.20586759               0.00000037               0.00000001               0.00000000 
  -1.42763693    0.23800926               0.00000026               0.00000001               0.00000000 
  -1.42763693    0.26551830               0.00000006               0.00000001               0.00000000 
  -1.42763693    0.28785921              -0.00000006               0.00000001               0.00000000 
  -1.42763693    0.30459690              -0.00000006               0.00000001               0.00000000 
  -1.42763693    0.31540427              -0.00000001               0.00000001               0.00000000 
  -1.42763693    0.32003610               0.00000001               0.00000001               0.00000000 
  -1.34918784   -0.32871133               0.00000001               0.00000001               0.00000000 
  -1.34918784   -0.32395394               0.00000001               0.00000001               0.00000000 
  -1.34918784   -0.31285362               0.00000001               0.00000001               0.00000000 
  -1.34918784   -0.29566222               0.00000001               0.00000001               0.00000000 
  -1.34918784   -0.27271572               0.00000002               0.00000001               0.00000000 
  -1.34918784   -0.24446099               0.00000003               0.00000002               0.00000000 
  -1.34918784   -0.21144805               0.00000004               0.00000002               0.00000000 
  -1.34918784   -0.17431949               0.00000003               0.00000002               0.00000000 
  -1.34918784   -0.13379798               0.00000002               0.00000003               0.00000000 
  -1.34918784   -0.09067224               0.00000014               0.00000003               0.00000000 
  -1.34918784   -0.04578167               0.00000052               0.00000003               0.00000000 
  -1.34918784    0.00000000               0.00000109               0.00000004               0.00000000 
  -1.34918784    0.04578167               0.00000145               0.00000004               0.00000000 
  -1.34918784    0.09067224               0.00000121               0.00000005               0.00000000 
  -1.34918784    0.13379798               0.00000046               0.00000005               0.00000000 
  -1.34918784    0.17431949              -0.00000027               0.00000005               0.00000000 
  -1.34918784    0.21144805              -0.00000053               0.00000005               0.00000000 
  -1.34918784    0.24446099              -0.00000036               0.00000005               0.00000000 
  -1.34918784    0.27271572              -0.00000007               0.00000005               0.00000000 
  -1.34918784    0.29566222               0.00000010               0.00000005               0.00000000 
  -1.34918784    0.31285362               0.00000012               0.00000005               0.00000000 
  -1.34918784    0.32395394               0.00000008               0.00000005               0.00000000 
  -1.34918784    0.32871133               0.00000005               0.00000005               0.00000000 
  -1.24447664   -0.34149179               0.00000005               0.00000005               0.00000000 
  -1.24447664   -0.33654944               0.00000006               0.00000006               0.00000000 
  -1.24447664   -0.32501753               0.00000006               0.00000006               0.00000000 
  -1.24447664   -0.30715772               0.00000007               0.00000006               0.00000000 
  -1.24447664   -0.28331904               0.00000007               0.00000007               0.00000000 
  -1.24447664   -0.25396575               0.00000008               0.00000008               0.00000000 
  -1.24447664   -0.21966926               0.00000009               0.00000010               0.00000000 
  -1.24447664   -0.18109712               0.00000013               0.00000011               0.00000000 
  -1.24447664   -0.13900012               0.00000018               0.00000013               0.00000000 
  -1.24447664   -0.09419763               0.00000012               0.00000015               0.00000000 
  -1.24447664   -0.04756168              -0.00000023               0.00000017               0.00000000 
  -1.24447664    0.00000000              -0.00000078               0.00000020               0.00000000 
  -1.24447664    0.04756168              -0.00000109               0.00000022               0.00000000 
  -1.24447664    0.09419763              -0.00000074               0.00000024               0.00000000 
  -1.24447664    0.13900012               0.00000014               0.00000025               0.00000000 
  -1.24447664    0.18109712               0.00000094               0.00000026               0.00000000 
  -1.24447664    0.21966926               0.00000115               0.00000027               0.00000000 
  -1.24447664    0.25396575               0.00000087               0.00000027               0.00000000 
  -1.24447664    0.28331904               0.00000048               0.00000027               0.00000000 
  -1.24447664    0.30715772               0.00000025               0.00000027               0.00000000 
  -1.24447664    0.32501753               0.00000021               0.00000027               0.00000000 
  -1.24447664    0.33654944               0.00000024               0.00000027               0.00000000 
  -1.24447664    0.34149179               0.00000027               0.00000027               0.00000000 
  -1.11554256   -0.35963532               0.00000032               0.00000032               0.00000000 
  -1.11554256   -0.35443037               0.00000033               0.00000033               0.00000000 
  -1.11554256   -0.34228577               0.00000035               0.00000035               0.00000000 
  -1.11554256   -0.32347706               0.00000038               0.00000039               0.00000000 
  -1.11554256   -0.29837183               0.00000044               0.00000044               0.00000000 
  -1.11554256   -0.26745900               0.00000052               0.00000051               0.00000000 
  -1.11554256   -0.23134032               0.00000061               0.00000060               0.00000000 
  -1.11554256   -0.19071884               0.00000068               0.00000070               0.00000000 
  -1.11554256   -0.14638522               0.00000074               0.00000083               0.00000000 
  -1.11554256   -0.09920236               0.00000091               0.00000097               0.00000000 
  -1.11554256   -0.05008864               0.00000137               0.00000113               0.00000000 
  -1.11554256    0.00000000               0.00000205               0.00000128               0.00000000 
  -1.11554256    0.05008864               0.00000247               0.00000142               0.00000000 
  -1.11554256    0.09920236               0.00000217               0.00000154               0.00000000 
  -1.11554256    0.14638522               0.00000130               0.00000164               0.00000000 
  -1.11554256    0.19071884               0.00000059               0.00000171               0.00000000 
  -1.11554256    0.23134032               0.00000055               0.00000175               0.00000000 
  -1.11554256    0.26745900               0.00000103               0.00000176               0.00000000 
  -1.11554256    0.29837183               0.00000154               0.00000176               0.00000000 
  -1.11554256    0.32347706               0.00000180               0.00000175               0.00000000 
  -1.11554256    0.34228577               0.00000182               0.00000173               0.00000000 
  -1.11554256    0.35443037               0.00000176               0.00000172               0.00000000 
  -1.11554256    0.35963532               0.00000171               0.00000171               0.00000000 
  -0.96489547   -0.38529863               0.00000210               0.00000210               0.00000000 
  -0.96489547   -0.37972226               0.00000217               0.00000217               0.00000000 
  -0.96489547   -0.36671103               0.00000234               0.00000233               0.00000000 
  -0.96489547   -0.34656015               0.00000260               0.00000259               0.00000000 
  -0.96489547   -0.31966343               0.00000298               0.00000297               0.00000000 
  -0.96489547   -0.28654468               0.00000348               0.00000349               0.00000000 
  -0.96489547   -0.24784860               0.00000414               0.00000417               0.00000000 
  -0.96489547   -0.20432840               0.00000502               0.00000501               0.00000000 
  -0.96489547   -0.15683116               0.00000613               0.00000601               0.00000000 
  -0.96489547   -0.10628137               0.00000732               0.00000714               0.00000000 
  -0.96489547   -0.05366293               0.00000833               0.00000836               0.00000000 
  -0.96489547    0.00000000               0.00000911               0.00000958               0.00000000 
  -0.96489547    0.05366293               0.00001006               0.00001073               0.00000000 
  -0.96489547    0.10628137               0.00001158               0.00001170               0.00000000 
  -0.96489547    0.15683116               0.00001336               0.00001244               0.00000000 
  -0.96489547    0.20432840               0.00001453               0.00001293               0.00000000 
  -0.96489547    0.24784860               0.00001461               0.00001317               0.00000000 
  -0.96489547    0.28654468               0.00001394               0.00001321               0.00000000 
  -0.96489547    0.31966343               0.00001317               0.00001312               0.00000000 
  -0.96489547    0.34656015               0.00001272               0.00001295               0.00000000 
  -0.96489547    0.36671103               0.00001258               0.00001278               0.00000000 
  -0.96489547    0.37972226               0.00001257               0.00001264               0.00000000 
  -0.96489547    0.38529863               0.00001258               0.00001258               0.00000000 
  -0.79546766   -0.42190299               0.00001309               0.00001309               0.00000000 
  -0.79546766   -0.41579685               0.00001356               0.00001356               0.00000000 
  -0.79546766   -0.40154952               0.00001471               0.00001472               0.00000000 
  -0.79546766   -0.37948425               0.00001663               0.00001666               0.00000000 
  -0.79546766   -0.35003227               0.00001950               0.00001952               0.00000000 
  -0.79546766   -0.31376716               0.00002350               0.00002349               0.00000000 
  -0.79546766   -0.27139485               0.00002880               0.00002876               0.00000000 
  -0.79546766   -0.22374012               0.00003548               0.00003546               0.00000000 
  -0.79546766   -0.17173052               0.00004350               0.00004362               0.00000000 
  -0.79546766   -0.11637837               0.00005276               0.00005304               0.00000000 
  -0.79546766   -0.05876105               0.00006305               0.00006325               0.00000000 
  -0.79546766    0.00000000               0.00007367               0.00007356               0.00000000 
  -0.79546766    0.05876105               0.00008327               0.00008310               0.00000000 
  -0.79546766    0.11637837               0.00009055               0.00009106               0.00000000 
  -0.79546766    0.17173052               0.00009529               0.00009685               0.00000000 
  -0.79546766    0.22374012               0.00009820               0.00010024               0.00000000 
  -0.79546766    0.27139485               0.00009992               0.00010142               0.00000000 
  -0.79546766    0.31376716               0.00010043               0.00010086               0.00000000 
  -0.79546766    0.35003227               0.00009958               0.00009918               0.00000000 
  -0.79546766    0.37948425               0.00009767               0.00009705               0.00000000 
  -0.79546766    0.40154952               0.00009545               0.00009503               0.00000000 
  -0.79546766    0.41579685               0.00009369               0.00009354               0.00000000 
  -0.79546766    0.42190299               0.00009286               0.00009286               0.00000000 
  -0.61055691   -0.47415480               0.00006690               0.00006690               0.00000000 
  -0.61055691   -0.46729243               0.00006985               0.00006985               0.00000000 
  -0.61055691   -0.45128061               0.00007713               0.00007711               0.00000000 
  -0.61055691   -0.42648260               0.00008952               0.00008949               0.00000000 
  -0.61055691   -0.39338305               0.00010832               0.00010828               0.00000000 
  -0.61055691   -0.35262658               0.00013522               0.00013523               0.00000000 
  -0.61055691   -0.30500655               0.00017216               0.00017224               0.00000000 
  -0.61055691   -0.25144987               0.00022093               0.00022102               0.00000000 
  -0.61055691   -0.19299899               0.00028235               0.00028230               0.00000000 
  -0.61055691   -0.13079160               0.00035523               0.00035492               0.00000000 
  -0.61055691   -0.06603848               0.00043557               0.00043517               0.00000000 
  -0.61055691    0.00000000               0.00051692               0.00051666               0.00000000 
  -0.61055691    0.06603848               0.00059176               0.00059137               0.00000000 
  -0.61055691    0.13079160               0.00065277               0.00065154               0.00000000 
  -0.61055691    0.19299899               0.00069410               0.00069181               0.00000000 
  -0.61055691    0.25144987               0.00071305               0.00071057               0.00000000 
  -0.61055691    0.30500655               0.00071152               0.00071011               0.00000000 
  -0.61055691    0.35262658               0.00069537               0.00069551               0.00000000 
  -0.61055691    0.39338305               0.00067186               0.00067300               0.00000000 
  -0.61055691    0.42648260               0.00064732               0.00064858               0.00000000 
  -0.61055691    0.45128061               0.00062628               0.00062707               0.00000000 
  -0.61055691    0.46729243               0.00061162               0.00061189               0.00000000 
  -0.61055691    0.47415480               0.00060510               0.00060510               0.00000000 
  -0.41376232   -0.54679264               0.00024058               0.00024058               0.00000000 
  -0.41376232   -0.53887899               0.00025401               0.00025403               0.00000000 
  -0.41376232   -0.52041424               0.00028777               0.00028784               0.00000000 
  -0.41376232   -0.49181732               0.00034718               0.00034731               0.00000000 
  -0.41376232   -0.45364711               0.00044133               0.00044152               0.00000000 
  -0.41376232   -0.40664697               0.00058325               0.00058346               0.00000000 
  -0.41376232   -0.35173182               0.00078916               0.00078934               0.00000000 
  -0.41376232   -0.28997057               0.00107564               0.00107584               0.00000000 
  -0.41376232   -0.22256535               0.00145389               0.00145432               0.00000000 
  -0.41376232   -0.15082813               0.00192131               0.00192222               0.00000000 
  -0.41376232   -0.07615520               0.00245333               0.00245464               0.00000000 
  -0.41376232    0.00000000               0.00300016               0.00300161               0.00000000 
  -0.41376232    0.07615520               0.00349441               0.00349616               0.00000000 
  -0.41376232    0.15082813               0.00387014               0.00387277               0.00000000 
  -0.41376232    0.22256535               0.00408509               0.00408858               0.00000000 
  -0.41376232    0.28997057               0.00413320               0.00413632               0.00000000 
  -0.41376232    0.35173182               0.00404166               0.00404299               0.00000000 
  -0.41376232    0.40664697               0.00385752               0.00385670               0.00000000 
  -0.41376232    0.45364711               0.00363247               0.00363042               0.00000000 
  -0.41376232    0.49181732               0.00341167               0.00340964               0.00000000 
  -0.41376232    0.52041424               0.00322837               0.00322713               0.00000000 
  -0.41376232    0.53887899               0.00310358               0.00310317               0.00000000 
  -0.41376232    0.54679264               0.00304885               0.00304885               0.00000000 
  -0.20891431   -0.64102471               0.00053440               0.00053440               0.00000000 
  -0.20891431   -0.63174726               0.00057376               0.00057376               0.00000000 
  -0.20891431   -0.61010037               0.00067536               0.00067536               0.00000000 
  -0.20891431   -0.57657516               0.00086258               0.00086262               0.00000000 
  -0.20891431   -0.53182685               0.00117824               0.00117842               0.00000000 
  -0.20891431   -0.47672690               0.00169031               0.00169085               0.00000000 
  -0.20891431   -0.41234789               0.00249513               0.00249632               0.00000000 
  -0.20891431   -0.33994295               0.00370939               0.00371149               0.00000000 
  -0.20891431   -0.26092138               0.00543871               0.00544174               0.00000000 
  -0.20891431   -0.17682125               0.00771617               0.00771999               0.00000000 
  -0.20891431   -0.08927949               0.01042669               0.01043131               0.00000000 
  -0.20891431    0.00000000               0.01326539               0.01327081               0.00000000 
  -0.20891431    0.08927949               0.01578565               0.01579119               0.00000000 
  -0.20891431    0.17682125               0.01754504               0.01754947               0.00000000 
  -0.20891431    0.26092138               0.01827873               0.01828159               0.00000000 
  -0.20891431    0.33994295               0.01799506               0.01799741               0.00000000 
  -0.20891431    0.41234789               0.01694015               0.01694348               0.00000000 
  -0.20891431    0.47672690               0.01547128               0.01547599               0.00000000 
  -0.20891431    0.53182685               0.01392616               0.01393131               0.00000000 
  -0.20891431    0.57657516               0.01254931               0.01255352               0.00000000 
  -0.20891431    0.61010037               0.01148178               0.01148422               0.00000000 
  -0.20891431    0.63174726               0.01078770               0.01078850               0.00000000 
  -0.20891431    0.64102471               0.01049075               0.01049075               0.00000000 
   0.00000000   -0.75000000               0.00069615               0.00069615               0.00000000 
   0.00000000   -0.73914537               0.00076397               0.00076401               0.00000000 
   0.00000000   -0.71381847               0.00094542               0.00094553               0.00000000 
   0.00000000   -0.67459392               0.00130123               0.00130150               0.00000000 
   0.00000000   -0.62223832               0.00195352               0.00195403               0.00000000 
   0.00000000   -0.55777128               0.00312176               0.00312267               0.00000000 
   0.00000000   -0.48244773               0.00516518               0.00516685               0.00000000 
   0.00000000   -0.39773383               0.00859664               0.00859987               0.00000000 
   0.00000000   -0.30527845               0.01399416               0.01400035               0.00000000 
   0.00000000   -0.20688116               0.02172520               0.02173588               0.00000000 
   0.00000000   -0.10445715               0.03150250               0.03151830               0.00000000 
   0.00000000    0.00000000               0.04203171               0.04205180               0.00000000 
   0.00000000    0.10445715               0.05117524               0.05119789               0.00000000 
   0.00000000    0.20688116               0.05679065               0.05681392               0.00000000 
   0.00000000    0.30527845               0.05777237               0.05779403               0.00000000 
   0.00000000    0.39773383               0.05452282               0.05454036               0.00000000 
   0.00000000    0.48244773               0.04855272               0.04856448               0.00000000 
   0.00000000    0.55777128               0.04163739               0.04164340               0.00000000 
   0.00000000    0.62223832               0.03515273               0.03515448               0.00000000 
   0.00000000    0.67459392               0.02986070               0.02986028               0.00000000 
   0.00000000    0.71381847               0.02602888               0.02602806               0.00000000 
   0.00000000    0.73914537               0.02365667               0.02365630               0.00000000 
   0.00000000    0.75000000               0.02266979               0.02266979               0.00000000 
   0.20891431   -0.85897529               0.00056919               0.00056919               0.00000000 
   0.20891431   -0.84654348               0.00064039               0.00064035               0.00000000 
   0.20891431   -0.81753657               0.00083884               0.00083870               0.00000000 
   0.20891431   -0.77261268               0.00125646               0.00125616               0.00000000 
   0.20891431   -0.71264979               0.00209826               0.00209779               0.00000000 
   0.20891431   -0.63881566               0.00378506               0.00378443               0.00000000 
   0.20891431   -0.55254758               0.00711660               0.00711590               0.00000000 
   0.20891431   -0.45552471               0.01343604               0.01343540               0.00000000 
   0.20891431   -0.34963553               0.02456758               0.02456711               0.00000000 
   0.20891431   -0.23694107               0.04211442               0.04211413               0.00000000 
   0.20891431   -0.11963482               0.06590723               0.06590677               0.00000000 