 TITLE = "ADVECTION DIFFUSION SOLUTION" 
 VARIABLES = "x","y","P","U","V"
 ZONE I= 23,J= 23, F=POINT
  -1.50000000   -0.31259035               0.00000000               0.00000000               0.00000000 
  -1.50000000   -0.30806628               0.00000000               0.00000000               0.00000000 
  -1.50000000   -0.29751035               0.00000000               0.00000000               0.00000000 
  -1.50000000   -0.28116206               0.00000000               0.00000000               0.00000000 
  -1.50000000   -0.25934092               0.00000000               0.00000000               0.00000000 
  -1.50000000   -0.23247189               0.00000000               0.00000000               0.00000000 
  -1.50000000   -0.20107801               0.00000000               0.00000000               0.00000000 
  -1.50000000   -0.16577034               0.00000000               0.00000000               0.00000000 
  -1.50000000   -0.12723613               0.00000000               0.00000000               0.00000000 
  -1.50000000   -0.08622541               0.00000000               0.00000000               0.00000000 
  -1.50000000   -0.04353640               0.00000000               0.00000000               0.00000000 
  -1.50000000    0.00000000               0.00000000               0.00000000               0.00000000 
  -1.50000000    0.04353640               0.00000000               0.00000000               0.00000000 
  -1.50000000    0.08622541               0.00000000               0.00000000               0.00000000 
  -1.50000000    0.12723613               0.00000000               0.00000000               0.00000000 
  -1.50000000    0.16577034               0.00000000               0.00000000               0.00000000 
  -1.50000000    0.20107801               0.00000000               0.00000000               0.00000000 
  -1.50000000    0.23247189               0.00000000               0.00000000               0.00000000 
  -1.50000000    0.25934092               0.00000000               0.00000000               0.00000000 
  -1.50000000    0.28116206               0.00000000               0.00000000               0.00000000 
  -1.50000000    0.29751035               0.00000000               0.00000000               0.00000000 
  -1.50000000    0.30806628               0.00000000               0.00000000               0.00000000 
  -1.50000000    0.31259035               0.00000000               0.00000000               0.00000000 
  -1.47829073   -0.31477373               0.00000000               0.00000000               0.00000000 
  -1.47829073   -0.31021806               0.00000000               0.00000000               0.00000000 
  -1.47829073   -0.29958840               0.00000000               0.00000000               0.00000000 
  -1.47829073   -0.28312592               0.00000000               0.00000000               0.00000000 
  -1.47829073   -0.26115237               0.00000000               0.00000000               0.00000000 
  -1.47829073   -0.23409566               0.00000000               0.00000000               0.00000000 
  -1.47829073   -0.20248250               0.00000000               0.00000000               0.00000000 
  -1.47829073   -0.16692821               0.00000000               0.00000000               0.00000000 
  -1.47829073   -0.12812485               0.00000000               0.00000000               0.00000000 
  -1.47829073   -0.08682767               0.00000000               0.00000000               0.00000000 
  -1.47829073   -0.04384049               0.00000000               0.00000000               0.00000000 
  -1.47829073    0.00000000              -0.00000000               0.00000000               0.00000000 
  -1.47829073    0.04384049              -0.00000000               0.00000000               0.00000000 
  -1.47829073    0.08682767              -0.00000000               0.00000000               0.00000000 
  -1.47829073    0.12812485               0.00000000               0.00000000               0.00000000 
  -1.47829073    0.16692821               0.00000001               0.00000000               0.00000000 
  -1.47829073    0.20248250              -0.00000000               0.00000000               0.00000000 
  -1.47829073    0.23409566              -0.00000001               0.00000000               0.00000000 
  -1.47829073    0.26115237              -0.00000002               0.00000000               0.00000000 
  -1.47829073    0.28312592              -0.00000002               0.00000000               0.00000000 
  -1.47829073    0.29958840              -0.00000002               0.00000000               0.00000000 
  -1.47829073    0.31021806              -0.00000000               0.00000000               0.00000000 
  -1.47829073    0.31477373               0.00000000               0.00000000               0.00000000 
  -1.42763693   -0.32003610               0.00000000               0.00000000               0.00000000 
  -1.42763693   -0.31540427               0.00000000               0.00000000               0.00000000 
  -1.42763693   -0.30459690               0.00000000               0.00000000               0.00000000 
  -1.42763693   -0.28785921               0.00000000               0.00000000               0.00000000 
  -1.42763693   -0.26551830               0.00000000               0.00000000               0.00000000 
  -1.42763693   -0.23800926               0.00000000               0.00000000               0.00000000 
  -1.42763693   -0.20586759               0.00000000               0.00000000               0.00000000 
  -1.42763693   -0.16971891               0.00000000               0.00000000               0.00000000 
  -1.42763693   -0.13026683               0.00000000               0.00000000               0.00000000 
  -1.42763693   -0.08827925               0.00000001               0.00000000               0.00000000 
  -1.42763693   -0.04457341               0.00000001               0.00000000               0.00000000 
  -1.42763693    0.00000000               0.00000001               0.00000000               0.00000000 
  -1.42763693    0.04457341               0.00000001               0.00000000               0.00000000 
  -1.42763693    0.08827925               0.00000001               0.00000000               0.00000000 
  -1.42763693    0.13026683               0.00000000               0.00000001               0.00000000 
  -1.42763693    0.16971891               0.00000000               0.00000001               0.00000000 
  -1.42763693    0.20586759               0.00000002               0.00000001               0.00000000 
  -1.42763693    0.23800926               0.00000004               0.00000001               0.00000000 
  -1.42763693    0.26551830               0.00000005               0.00000001               0.00000000 
  -1.42763693    0.28785921               0.00000005               0.00000001               0.00000000 
  -1.42763693    0.30459690               0.00000003               0.00000001               0.00000000 
  -1.42763693    0.31540427               0.00000002               0.00000001               0.00000000 
  -1.42763693    0.32003610               0.00000001               0.00000001               0.00000000 
  -1.34918784   -0.32871133               0.00000000               0.00000000               0.00000000 
  -1.34918784   -0.32395394               0.00000000               0.00000000               0.00000000 
  -1.34918784   -0.31285362               0.00000000               0.00000000               0.00000000 
  -1.34918784   -0.29566222               0.00000000               0.00000000               0.00000000 
  -1.34918784   -0.27271572               0.00000001               0.00000000               0.00000000 
  -1.34918784   -0.24446099               0.00000001               0.00000000               0.00000000 
  -1.34918784   -0.21144805               0.00000001               0.00000001               0.00000000 
  -1.34918784   -0.17431949               0.00000001               0.00000001               0.00000000 
  -1.34918784   -0.13379798               0.00000001               0.00000001               0.00000000 
  -1.34918784   -0.09067224               0.00000001               0.00000001               0.00000000 
  -1.34918784   -0.04578167               0.00000001               0.00000001               0.00000000 
  -1.34918784    0.00000000               0.00000001               0.00000001               0.00000000 
  -1.34918784    0.04578167               0.00000001               0.00000001               0.00000000 
  -1.34918784    0.09067224               0.00000002               0.00000001               0.00000000 
  -1.34918784    0.13379798               0.00000002               0.00000002               0.00000000 
  -1.34918784    0.17431949               0.00000002               0.00000002               0.00000000 
  -1.34918784    0.21144805               0.00000000               0.00000002               0.00000000 
  -1.34918784    0.24446099              -0.00000002               0.00000002               0.00000000 
  -1.34918784    0.27271572              -0.00000004               0.00000002               0.00000000 
  -1.34918784    0.29566222              -0.00000003               0.00000002               0.00000000 
  -1.34918784    0.31285362              -0.00000001               0.00000002               0.00000000 
  -1.34918784    0.32395394               0.00000001               0.00000002               0.00000000 
  -1.34918784    0.32871133               0.00000002               0.00000002               0.00000000 
  -1.24447664   -0.34149179               0.00000001               0.00000001               0.00000000 
  -1.24447664   -0.33654944               0.00000001               0.00000001               0.00000000 
  -1.24447664   -0.32501753               0.00000001               0.00000001               0.00000000 
  -1.24447664   -0.30715772               0.00000001               0.00000001               0.00000000 
  -1.24447664   -0.28331904               0.00000002               0.00000002               0.00000000 
  -1.24447664   -0.25396575               0.00000002               0.00000002               0.00000000 
  -1.24447664   -0.21966926               0.00000002               0.00000002               0.00000000 
  -1.24447664   -0.18109712               0.00000003               0.00000003               0.00000000 
  -1.24447664   -0.13900012               0.00000003               0.00000003               0.00000000 
  -1.24447664   -0.09419763               0.00000003               0.00000004               0.00000000 
  -1.24447664   -0.04756168               0.00000004               0.00000004               0.00000000 
  -1.24447664    0.00000000               0.00000004               0.00000005               0.00000000 
  -1.24447664    0.04756168               0.00000004               0.00000005               0.00000000 
  -1.24447664    0.09419763               0.00000004               0.00000006               0.00000000 
  -1.24447664    0.13900012               0.00000005               0.00000007               0.00000000 
  -1.24447664    0.18109712               0.00000006               0.00000007               0.00000000 
  -1.24447664    0.21966926               0.00000010               0.00000008               0.00000000 
  -1.24447664    0.25396575               0.00000013               0.00000008               0.00000000 
  -1.24447664    0.28331904               0.00000015               0.00000008               0.00000000 
  -1.24447664    0.30715772               0.00000015               0.00000008               0.00000000 
  -1.24447664    0.32501753               0.00000013               0.00000009               0.00000000 
  -1.24447664    0.33654944               0.00000010               0.00000009               0.00000000 
  -1.24447664    0.34149179               0.00000009               0.00000009               0.00000000 
  -1.11554256   -0.35963532               0.00000006               0.00000006               0.00000000 
  -1.11554256   -0.35443037               0.00000006               0.00000006               0.00000000 
  -1.11554256   -0.34228577               0.00000006               0.00000006               0.00000000 
  -1.11554256   -0.32347706               0.00000007               0.00000007               0.00000000 
  -1.11554256   -0.29837183               0.00000008               0.00000008               0.00000000 
  -1.11554256   -0.26745900               0.00000009               0.00000009               0.00000000 
  -1.11554256   -0.23134032               0.00000011               0.00000011               0.00000000 
  -1.11554256   -0.19071884               0.00000013               0.00000012               0.00000000 
  -1.11554256   -0.14638522               0.00000015               0.00000015               0.00000000 
  -1.11554256   -0.09920236               0.00000018               0.00000017               0.00000000 
  -1.11554256   -0.05008864               0.00000021               0.00000021               0.00000000 
  -1.11554256    0.00000000               0.00000025               0.00000024               0.00000000 
  -1.11554256    0.05008864               0.00000029               0.00000027               0.00000000 
  -1.11554256    0.09920236               0.00000034               0.00000031               0.00000000 
  -1.11554256    0.14638522               0.00000037               0.00000034               0.00000000 
  -1.11554256    0.19071884               0.00000038               0.00000037               0.00000000 
  -1.11554256    0.23134032               0.00000036               0.00000039               0.00000000 
  -1.11554256    0.26745900               0.00000034               0.00000041               0.00000000 
  -1.11554256    0.29837183               0.00000034               0.00000043               0.00000000 
  -1.11554256    0.32347706               0.00000036               0.00000044               0.00000000 
  -1.11554256    0.34228577               0.00000039               0.00000044               0.00000000 
  -1.11554256    0.35443037               0.00000043               0.00000045               0.00000000 
  -1.11554256    0.35963532               0.00000045               0.00000045               0.00000000 
  -0.96489547   -0.38529863               0.00000031               0.00000031               0.00000000 
  -0.96489547   -0.37972226               0.00000031               0.00000031               0.00000000 
  -0.96489547   -0.36671103               0.00000033               0.00000034               0.00000000 
  -0.96489547   -0.34656015               0.00000037               0.00000037               0.00000000 
  -0.96489547   -0.31966343               0.00000042               0.00000042               0.00000000 
  -0.96489547   -0.28654468               0.00000049               0.00000049               0.00000000 
  -0.96489547   -0.24784860               0.00000058               0.00000058               0.00000000 
  -0.96489547   -0.20432840               0.00000070               0.00000070               0.00000000 
  -0.96489547   -0.15683116               0.00000084               0.00000084               0.00000000 
  -0.96489547   -0.10628137               0.00000100               0.00000101               0.00000000 
  -0.96489547   -0.05366293               0.00000119               0.00000120               0.00000000 
  -0.96489547    0.00000000               0.00000138               0.00000140               0.00000000 
  -0.96489547    0.05366293               0.00000159               0.00000162               0.00000000 
  -0.96489547    0.10628137               0.00000179               0.00000183               0.00000000 
  -0.96489547    0.15683116               0.00000199               0.00000203               0.00000000 
  -0.96489547    0.20432840               0.00000219               0.00000221               0.00000000 
  -0.96489547    0.24784860               0.00000239               0.00000236               0.00000000 
  -0.96489547    0.28654468               0.00000256               0.00000247               0.00000000 
  -0.96489547    0.31966343               0.00000268               0.00000256               0.00000000 
  -0.96489547    0.34656015               0.00000272               0.00000262               0.00000000 
  -0.96489547    0.36671103               0.00000272               0.00000266               0.00000000 
  -0.96489547    0.37972226               0.00000270               0.00000268               0.00000000 
  -0.96489547    0.38529863               0.00000269               0.00000269               0.00000000 
  -0.79546766   -0.42190299               0.00000158               0.00000158               0.00000000 
  -0.79546766   -0.41579685               0.00000164               0.00000164               0.00000000 
  -0.79546766   -0.40154952               0.00000176               0.00000176               0.00000000 
  -0.79546766   -0.37948425               0.00000197               0.00000197               0.00000000 
  -0.79546766   -0.35003227               0.00000229               0.00000228               0.00000000 
  -0.79546766   -0.31376716               0.00000272               0.00000272               0.00000000 
  -0.79546766   -0.27139485               0.00000330               0.00000329               0.00000000 
  -0.79546766   -0.22374012               0.00000404               0.00000404               0.00000000 
  -0.79546766   -0.17173052               0.00000497               0.00000497               0.00000000 
  -0.79546766   -0.11637837               0.00000609               0.00000609               0.00000000 
  -0.79546766   -0.05876105               0.00000739               0.00000738               0.00000000 
  -0.79546766    0.00000000               0.00000882               0.00000880               0.00000000 
  -0.79546766    0.05876105               0.00001032               0.00001028               0.00000000 
  -0.79546766    0.11637837               0.00001180               0.00001173               0.00000000 
  -0.79546766    0.17173052               0.00001314               0.00001309               0.00000000 
  -0.79546766    0.22374012               0.00001428               0.00001426               0.00000000 
  -0.79546766    0.27139485               0.00001516               0.00001522               0.00000000 
  -0.79546766    0.31376716               0.00001582               0.00001594               0.00000000 
  -0.79546766    0.35003227               0.00001629               0.00001645               0.00000000 
  -0.79546766    0.37948425               0.00001665               0.00001678               0.00000000 
  -0.79546766    0.40154952               0.00001689               0.00001697               0.00000000 
  -0.79546766    0.41579685               0.00001704               0.00001707               0.00000000 
  -0.79546766    0.42190299               0.00001711               0.00001711               0.00000000 
  -0.61055691   -0.47415480               0.00000727               0.00000727               0.00000000 
  -0.61055691   -0.46729243               0.00000755               0.00000755               0.00000000 
  -0.61055691   -0.45128061               0.00000825               0.00000825               0.00000000 
  -0.61055691   -0.42648260               0.00000943               0.00000944               0.00000000 
  -0.61055691   -0.39338305               0.00001122               0.00001122               0.00000000 
  -0.61055691   -0.35262658               0.00001376               0.00001377               0.00000000 
  -0.61055691   -0.30500655               0.00001727               0.00001727               0.00000000 
  -0.61055691   -0.25144987               0.00002193               0.00002194               0.00000000 
  -0.61055691   -0.19299899               0.00002792               0.00002793               0.00000000 
  -0.61055691   -0.13079160               0.00003531               0.00003532               0.00000000 
  -0.61055691   -0.06603848               0.00004400               0.00004402               0.00000000 
  -0.61055691    0.00000000               0.00005368               0.00005372               0.00000000 
  -0.61055691    0.06603848               0.00006382               0.00006390               0.00000000 
  -0.61055691    0.13079160               0.00007378               0.00007387               0.00000000 
  -0.61055691    0.19299899               0.00008288               0.00008297               0.00000000 
  -0.61055691    0.25144987               0.00009060               0.00009063               0.00000000 
  -0.61055691    0.30500655               0.00009661               0.00009654               0.00000000 
  -0.61055691    0.35262658               0.00010084               0.00010068               0.00000000 
  -0.61055691    0.39338305               0.00010345               0.00010326               0.00000000 
  -0.61055691    0.42648260               0.00010481               0.00010465               0.00000000 
  -0.61055691    0.45128061               0.00010536               0.00010526               0.00000000 
  -0.61055691    0.46729243               0.00010548               0.00010545               0.00000000 
  -0.61055691    0.47415480               0.00010548               0.00010548               0.00000000 
  -0.41376232   -0.54679264               0.00002617               0.00002617               0.00000000 
  -0.41376232   -0.53887899               0.00002745               0.00002745               0.00000000 
  -0.41376232   -0.52041424               0.00003063               0.00003063               0.00000000 
  -0.41376232   -0.49181732               0.00003616               0.00003616               0.00000000 
  -0.41376232   -0.45364711               0.00004478               0.00004479               0.00000000 
  -0.41376232   -0.40664697               0.00005760               0.00005762               0.00000000 
  -0.41376232   -0.35173182               0.00007604               0.00007606               0.00000000 
  -0.41376232   -0.28997057               0.00010172               0.00010175               0.00000000 
  -0.41376232   -0.22256535               0.00013620               0.00013625               0.00000000 
  -0.41376232   -0.15082813               0.00018044               0.00018052               0.00000000 
  -0.41376232   -0.07615520               0.00023418               0.00023426               0.00000000 
  -0.41376232    0.00000000               0.00029532               0.00029541               0.00000000 
  -0.41376232    0.07615520               0.00035992               0.00035999               0.00000000 
  -0.41376232    0.15082813               0.00042267               0.00042273               0.00000000 
  -0.41376232    0.22256535               0.00047817               0.00047825               0.00000000 
  -0.41376232    0.28997057               0.00052224               0.00052239               0.00000000 
  -0.41376232    0.35173182               0.00055299               0.00055324               0.00000000 
  -0.41376232    0.40664697               0.00057097               0.00057130               0.00000000 
  -0.41376232    0.45364711               0.00057865               0.00057899               0.00000000 
  -0.41376232    0.49181732               0.00057946               0.00057973               0.00000000 
  -0.41376232    0.52041424               0.00057687               0.00057702               0.00000000 
  -0.41376232    0.53887899               0.00057376               0.00057381               0.00000000 
  -0.41376232    0.54679264               0.00057209               0.00057209               0.00000000 
  -0.20891431   -0.64102471               0.00006672               0.00006672               0.00000000 
  -0.20891431   -0.63174726               0.00007091               0.00007091               0.00000000 
  -0.20891431   -0.61010037               0.00008159               0.00008159               0.00000000 
  -0.20891431   -0.57657516               0.00010083               0.00010085               0.00000000 
  -0.20891431   -0.53182685               0.00013240               0.00013243               0.00000000 
  -0.20891431   -0.47672690               0.00018218               0.00018224               0.00000000 
  -0.20891431   -0.41234789               0.00025859               0.00025870               0.00000000 
  -0.20891431   -0.33994295               0.00037242               0.00037259               0.00000000 
  -0.20891431   -0.26092138               0.00053533               0.00053558               0.00000000 
  -0.20891431   -0.17682125               0.00075644               0.00075681               0.00000000 
  -0.20891431   -0.08927949               0.00103714               0.00103766               0.00000000 
  -0.20891431    0.00000000               0.00136587               0.00136657               0.00000000 
  -0.20891431    0.08927949               0.00171625               0.00171710               0.00000000 
  -0.20891431    0.17682125               0.00205120               0.00205217               0.00000000 
  -0.20891431    0.26092138               0.00233303               0.00233402               0.00000000 
  -0.20891431    0.33994295               0.00253491               0.00253580               0.00000000 
  -0.20891431    0.41234789               0.00264825               0.00264895               0.00000000 
  -0.20891431    0.47672690               0.00268275               0.00268322               0.00000000 
  -0.20891431    0.53182685               0.00266049               0.00266076               0.00000000 
  -0.20891431    0.57657516               0.00260794               0.00260807               0.00000000 
  -0.20891431    0.61010037               0.00254944               0.00254949               0.00000000 
  -0.20891431    0.63174726               0.00250352               0.00250353               0.00000000 
  -0.20891431    0.64102471               0.00248199               0.00248199               0.00000000 
   0.00000000   -0.75000000               0.00011598               0.00011598               0.00000000 
   0.00000000   -0.73914537               0.00012542               0.00012543               0.00000000 
   0.00000000   -0.71381847               0.00015014               0.00015015               0.00000000 
   0.00000000   -0.67459392               0.00019690               0.00019693               0.00000000 
   0.00000000   -0.62223832               0.00027880               0.00027885               0.00000000 
   0.00000000   -0.55777128               0.00041843               0.00041855               0.00000000 
   0.00000000   -0.48244773               0.00065191               0.00065214               0.00000000 
   0.00000000   -0.39773383               0.00103135               0.00103178               0.00000000 
   0.00000000   -0.30527845               0.00162131               0.00162207               0.00000000 
   0.00000000   -0.20688116               0.00248266               0.00248389               0.00000000 
   0.00000000   -0.10445715               0.00364098               0.00364279               0.00000000 
   0.00000000    0.00000000               0.00504846               0.00505090               0.00000000 
   0.00000000    0.10445715               0.00656396               0.00656693               0.00000000 
   0.00000000    0.20688116               0.00797677               0.00798008               0.00000000 
   0.00000000    0.30527845               0.00907533               0.00907871               0.00000000 
   0.00000000    0.39773383               0.00972574               0.00972896               0.00000000 
   0.00000000    0.48244773               0.00991406               0.00991692               0.00000000 
   0.00000000    0.55777128               0.00973256               0.00973490               0.00000000 
   0.00000000    0.62223832               0.00932881               0.00933056               0.00000000 
   0.00000000    0.67459392               0.00885235               0.00885349               0.00000000 
   0.00000000    0.71381847               0.00842186               0.00842245               0.00000000 
   0.00000000    0.73914537               0.00811595               0.00811613               0.00000000 
   0.00000000    0.75000000               0.00797904               0.00797904               0.00000000 
   0.20891431   -0.85897529               0.00014534               0.00014534               0.00000000 
   0.20891431   -0.84654348               0.00016023               0.00016023               0.00000000 
   0.20891431   -0.81753657               0.00020048               0.00020049               0.00000000 
   0.20891431   -0.77261268               0.00028091               0.00028092               0.00000000 
   0.20891431   -0.71264979               0.00043254               0.00043258               0.00000000 
   0.20891431   -0.63881566               0.00071484               0.00071495               0.00000000 
   0.20891431   -0.55254758               0.00123439               0.00123467               0.00000000 
   0.20891431   -0.45552471               0.00216527               0.00216587               0.00000000 
   0.20891431   -0.34963553               0.00375295               0.00375414               0.00000000 
   0.20891431   -0.23694107               0.00626689               0.00626904               0.00000000 
   0.20891431   -0.11963482               0.00986979               0.00987327               0.00000000 