 TITLE = "ADVECTION DIFFUSION SOLUTION" 
 VARIABLES = "x","y","P","U","V"
 ZONE I= 23,J= 23, F=POINT
  -1.50000000   -0.31259035               0.00000000               0.00000000               0.00000000 
  -1.50000000   -0.30806628               0.00000000               0.00000000               0.00000000 
  -1.50000000   -0.29751035               0.00000000               0.00000000               0.00000000 
  -1.50000000   -0.28116206               0.00000000               0.00000000               0.00000000 
  -1.50000000   -0.25934092               0.00000000               0.00000000               0.00000000 
  -1.50000000   -0.23247189               0.00000000               0.00000000               0.00000000 
  -1.50000000   -0.20107801               0.00000000               0.00000000               0.00000000 
  -1.50000000   -0.16577034               0.00000000               0.00000000               0.00000000 
  -1.50000000   -0.12723613               0.00000000               0.00000000               0.00000000 
  -1.50000000   -0.08622541               0.00000000               0.00000000               0.00000000 
  -1.50000000   -0.04353640               0.00000000               0.00000000               0.00000000 
  -1.50000000    0.00000000               0.00000000               0.00000000               0.00000000 
  -1.50000000    0.04353640               0.00000000               0.00000000               0.00000000 
  -1.50000000    0.08622541               0.00000000               0.00000000               0.00000000 
  -1.50000000    0.12723613               0.00000000               0.00000000               0.00000000 
  -1.50000000    0.16577034               0.00000000               0.00000000               0.00000000 
  -1.50000000    0.20107801               0.00000000               0.00000000               0.00000000 
  -1.50000000    0.23247189               0.00000000               0.00000000               0.00000000 
  -1.50000000    0.25934092               0.00000000               0.00000000               0.00000000 
  -1.50000000    0.28116206               0.00000000               0.00000000               0.00000000 
  -1.50000000    0.29751035               0.00000000               0.00000000               0.00000000 
  -1.50000000    0.30806628               0.00000000               0.00000000               0.00000000 
  -1.50000000    0.31259035               0.00000000               0.00000000               0.00000000 
  -1.47829073   -0.31477373               0.00000000               0.00000000               0.00000000 
  -1.47829073   -0.31021806              -0.00000012               0.00000000               0.00000000 
  -1.47829073   -0.29958840              -0.00000035               0.00000000               0.00000000 
  -1.47829073   -0.28312592              -0.00000066               0.00000000               0.00000000 
  -1.47829073   -0.26115237              -0.00000096               0.00000000               0.00000000 
  -1.47829073   -0.23409566              -0.00000105               0.00000000               0.00000000 
  -1.47829073   -0.20248250              -0.00000038               0.00000000               0.00000000 
  -1.47829073   -0.16692821               0.00000152               0.00000000               0.00000000 
  -1.47829073   -0.12812485               0.00000381               0.00000000               0.00000000 
  -1.47829073   -0.08682767               0.00000392               0.00000000               0.00000000 
  -1.47829073   -0.04384049               0.00000061               0.00000000               0.00000000 
  -1.47829073    0.00000000              -0.00000253               0.00000000               0.00000000 
  -1.47829073    0.04384049              -0.00000043               0.00000000               0.00000000 
  -1.47829073    0.08682767               0.00000607               0.00000000               0.00000000 
  -1.47829073    0.12812485               0.00001041               0.00000000               0.00000000 
  -1.47829073    0.16692821               0.00000868               0.00000000               0.00000000 
  -1.47829073    0.20248250               0.00000349               0.00000000               0.00000000 
  -1.47829073    0.23409566              -0.00000085               0.00000000               0.00000000 
  -1.47829073    0.26115237              -0.00000269               0.00000000               0.00000000 
  -1.47829073    0.28312592              -0.00000260               0.00000000               0.00000000 
  -1.47829073    0.29958840              -0.00000161               0.00000000               0.00000000 
  -1.47829073    0.31021806              -0.00000055               0.00000000               0.00000000 
  -1.47829073    0.31477373               0.00000000               0.00000000               0.00000000 
  -1.42763693   -0.32003610               0.00000000               0.00000000               0.00000000 
  -1.42763693   -0.31540427               0.00000017               0.00000000               0.00000000 
  -1.42763693   -0.30459690               0.00000053               0.00000000               0.00000000 
  -1.42763693   -0.28785921               0.00000101               0.00000000               0.00000000 
  -1.42763693   -0.26551830               0.00000143               0.00000000               0.00000000 
  -1.42763693   -0.23800926               0.00000130               0.00000000               0.00000000 
  -1.42763693   -0.20586759              -0.00000037               0.00000000               0.00000000 
  -1.42763693   -0.16971891              -0.00000452               0.00000000               0.00000000 
  -1.42763693   -0.13026683              -0.00001015               0.00000000               0.00000000 
  -1.42763693   -0.08827925              -0.00001360               0.00000000               0.00000000 
  -1.42763693   -0.04457341              -0.00001261               0.00000000               0.00000000 
  -1.42763693    0.00000000              -0.00001122               0.00000000               0.00000000 
  -1.42763693    0.04457341              -0.00001560               0.00000000               0.00000000 
  -1.42763693    0.08827925              -0.00002415               0.00000001               0.00000000 
  -1.42763693    0.13026683              -0.00002794               0.00000000               0.00000000 
  -1.42763693    0.16971891              -0.00002228               0.00000000               0.00000000 
  -1.42763693    0.20586759              -0.00001163               0.00000000               0.00000000 
  -1.42763693    0.23800926              -0.00000272               0.00000000               0.00000000 
  -1.42763693    0.26551830               0.00000175               0.00000000               0.00000000 
  -1.42763693    0.28785921               0.00000265               0.00000000               0.00000000 
  -1.42763693    0.30459690               0.00000179               0.00000000               0.00000000 
  -1.42763693    0.31540427               0.00000063               0.00000000               0.00000000 
  -1.42763693    0.32003610               0.00000000               0.00000000               0.00000000 
  -1.34918784   -0.32871133               0.00000001               0.00000001               0.00000000 
  -1.34918784   -0.32395394              -0.00000021               0.00000001               0.00000000 
  -1.34918784   -0.31285362              -0.00000070               0.00000001               0.00000000 
  -1.34918784   -0.29566222              -0.00000136               0.00000001               0.00000000 
  -1.34918784   -0.27271572              -0.00000194               0.00000001               0.00000000 
  -1.34918784   -0.24446099              -0.00000169               0.00000001               0.00000000 
  -1.34918784   -0.21144805               0.00000087               0.00000002               0.00000000 
  -1.34918784   -0.17431949               0.00000728               0.00000002               0.00000000 
  -1.34918784   -0.13379798               0.00001673               0.00000002               0.00000000 
  -1.34918784   -0.09067224               0.00002473               0.00000002               0.00000000 
  -1.34918784   -0.04578167               0.00002775               0.00000003               0.00000000 
  -1.34918784    0.00000000               0.00002947               0.00000003               0.00000000 
  -1.34918784    0.04578167               0.00003630               0.00000003               0.00000000 
  -1.34918784    0.09067224               0.00004570               0.00000003               0.00000000 
  -1.34918784    0.13379798               0.00004709               0.00000003               0.00000000 
  -1.34918784    0.17431949               0.00003598               0.00000003               0.00000000 
  -1.34918784    0.21144805               0.00001921               0.00000003               0.00000000 
  -1.34918784    0.24446099               0.00000571               0.00000002               0.00000000 
  -1.34918784    0.27271572              -0.00000116               0.00000002               0.00000000 
  -1.34918784    0.29566222              -0.00000285               0.00000002               0.00000000 
  -1.34918784    0.31285362              -0.00000201               0.00000002               0.00000000 
  -1.34918784    0.32395394              -0.00000069               0.00000002               0.00000000 
  -1.34918784    0.32871133               0.00000002               0.00000002               0.00000000 
  -1.24447664   -0.34149179               0.00000007               0.00000007               0.00000000 
  -1.24447664   -0.33654944               0.00000037               0.00000008               0.00000000 
  -1.24447664   -0.32501753               0.00000104               0.00000008               0.00000000 
  -1.24447664   -0.30715772               0.00000201               0.00000009               0.00000000 
  -1.24447664   -0.28331904               0.00000295               0.00000010               0.00000000 
  -1.24447664   -0.25396575               0.00000293               0.00000012               0.00000000 
  -1.24447664   -0.21966926              -0.00000004               0.00000014               0.00000000 
  -1.24447664   -0.18109712              -0.00000827               0.00000016               0.00000000 
  -1.24447664   -0.13900012              -0.00002151               0.00000019               0.00000000 
  -1.24447664   -0.09419763              -0.00003487               0.00000021               0.00000000 
  -1.24447664   -0.04756168              -0.00004342               0.00000024               0.00000000 
  -1.24447664    0.00000000              -0.00004951               0.00000025               0.00000000 
  -1.24447664    0.04756168              -0.00005864               0.00000026               0.00000000 
  -1.24447664    0.09419763              -0.00006721               0.00000026               0.00000000 
  -1.24447664    0.13900012              -0.00006408               0.00000025               0.00000000 
  -1.24447664    0.18109712              -0.00004617               0.00000024               0.00000000 
  -1.24447664    0.21966926              -0.00002305               0.00000023               0.00000000 
  -1.24447664    0.25396575              -0.00000554               0.00000021               0.00000000 
  -1.24447664    0.28331904               0.00000290               0.00000019               0.00000000 
  -1.24447664    0.30715772               0.00000455               0.00000018               0.00000000 
  -1.24447664    0.32501753               0.00000307               0.00000017               0.00000000 
  -1.24447664    0.33654944               0.00000115               0.00000016               0.00000000 
  -1.24447664    0.34149179               0.00000016               0.00000016               0.00000000 
  -1.11554256   -0.35963532               0.00000080               0.00000080               0.00000000 
  -1.11554256   -0.35443037               0.00000043               0.00000083               0.00000000 
  -1.11554256   -0.34228577              -0.00000046               0.00000090               0.00000000 
  -1.11554256   -0.32347706              -0.00000180               0.00000100               0.00000000 
  -1.11554256   -0.29837183              -0.00000327               0.00000115               0.00000000 
  -1.11554256   -0.26745900              -0.00000376               0.00000135               0.00000000 
  -1.11554256   -0.23134032              -0.00000079               0.00000161               0.00000000 
  -1.11554256   -0.19071884               0.00000893               0.00000190               0.00000000 
  -1.11554256   -0.14638522               0.00002609               0.00000222               0.00000000 
  -1.11554256   -0.09920236               0.00004558               0.00000255               0.00000000 
  -1.11554256   -0.05008864               0.00006077               0.00000284               0.00000000 
  -1.11554256    0.00000000               0.00007203               0.00000305               0.00000000 
  -1.11554256    0.05008864               0.00008341               0.00000316               0.00000000 
  -1.11554256    0.09920236               0.00009000               0.00000316               0.00000000 
  -1.11554256    0.14638522               0.00008050               0.00000306               0.00000000 
  -1.11554256    0.19071884               0.00005418               0.00000288               0.00000000 
  -1.11554256    0.23134032               0.00002411               0.00000266               0.00000000 
  -1.11554256    0.26745900               0.00000300               0.00000243               0.00000000 
  -1.11554256    0.29837183              -0.00000597               0.00000221               0.00000000 
  -1.11554256    0.32347706              -0.00000640               0.00000203               0.00000000 
  -1.11554256    0.34228577              -0.00000320               0.00000189               0.00000000 
  -1.11554256    0.35443037               0.00000012               0.00000180               0.00000000 
  -1.11554256    0.35963532               0.00000177               0.00000177               0.00000000 
  -0.96489547   -0.38529863               0.00000923               0.00000923               0.00000000 
  -0.96489547   -0.37972226               0.00001012               0.00000958               0.00000000 
  -0.96489547   -0.36671103               0.00001228               0.00001042               0.00000000 
  -0.96489547   -0.34656015               0.00001577               0.00001183               0.00000000 
  -0.96489547   -0.31966343               0.00002041               0.00001388               0.00000000 
  -0.96489547   -0.28654468               0.00002515               0.00001665               0.00000000 
  -0.96489547   -0.24784860               0.00002704               0.00002018               0.00000000 
  -0.96489547   -0.20432840               0.00002147               0.00002442               0.00000000 
  -0.96489547   -0.15683116               0.00000602               0.00002914               0.00000000 
  -0.96489547   -0.10628137              -0.00001478               0.00003392               0.00000000 
  -0.96489547   -0.05366293              -0.00003289               0.00003819               0.00000000 
  -0.96489547    0.00000000              -0.00004661               0.00004136               0.00000000 
  -0.96489547    0.05366293              -0.00005833               0.00004295               0.00000000 
  -0.96489547    0.10628137              -0.00006175               0.00004279               0.00000000 
  -0.96489547    0.15683116              -0.00004562               0.00004105               0.00000000 
  -0.96489547    0.20432840              -0.00001231               0.00003817               0.00000000 
  -0.96489547    0.24784860               0.00002127               0.00003470               0.00000000 
  -0.96489547    0.28654468               0.00004117               0.00003115               0.00000000 
  -0.96489547    0.31966343               0.00004563               0.00002791               0.00000000 
  -0.96489547    0.34656015               0.00004035               0.00002523               0.00000000 
  -0.96489547    0.36671103               0.00003187               0.00002324               0.00000000 
  -0.96489547    0.37972226               0.00002476               0.00002196               0.00000000 
  -0.96489547    0.38529863               0.00002142               0.00002142               0.00000000 
  -0.79546766   -0.42190299               0.00009050               0.00009050               0.00000000 
  -0.79546766   -0.41579685               0.00009389               0.00009456               0.00000000 
  -0.79546766   -0.40154952               0.00010222               0.00010453               0.00000000 
  -0.79546766   -0.37948425               0.00011636               0.00012136               0.00000000 
  -0.79546766   -0.35003227               0.00013786               0.00014652               0.00000000 
  -0.79546766   -0.31376716               0.00016933               0.00018158               0.00000000 
  -0.79546766   -0.27139485               0.00021532               0.00022775               0.00000000 
  -0.79546766   -0.22374012               0.00028171               0.00028480               0.00000000 
  -0.79546766   -0.17173052               0.00037034               0.00035007               0.00000000 
  -0.79546766   -0.11637837               0.00047118               0.00041760               0.00000000 
  -0.79546766   -0.05876105               0.00056436               0.00047859               0.00000000 
  -0.79546766    0.00000000               0.00063375               0.00052330               0.00000000 
  -0.79546766    0.05876105               0.00067036               0.00054418               0.00000000 
  -0.79546766    0.11637837               0.00066291               0.00053858               0.00000000 
  -0.79546766    0.17173052               0.00060446               0.00050955               0.00000000 
  -0.79546766    0.22374012               0.00051070               0.00046447               0.00000000 
  -0.79546766    0.27139485               0.00041366               0.00041220               0.00000000 
  -0.79546766    0.31376716               0.00033684               0.00036055               0.00000000 
  -0.79546766    0.35003227               0.00028563               0.00031492               0.00000000 
  -0.79546766    0.37948425               0.00025515               0.00027821               0.00000000 
  -0.79546766    0.40154952               0.00023860               0.00025145               0.00000000 
  -0.79546766    0.41579685               0.00023053               0.00023467               0.00000000 
  -0.79546766    0.42190299               0.00022762               0.00022762               0.00000000 
  -0.61055691   -0.47415480               0.00060286               0.00060286               0.00000000 
  -0.61055691   -0.46729243               0.00063732               0.00063660               0.00000000 
  -0.61055691   -0.45128061               0.00072340               0.00072092               0.00000000 
  -0.61055691   -0.42648260               0.00087314               0.00086768               0.00000000 
  -0.61055691   -0.39338305               0.00110561               0.00109578               0.00000000 
  -0.61055691   -0.35262658               0.00144402               0.00142900               0.00000000 
  -0.61055691   -0.30500655               0.00190775               0.00189007               0.00000000 
  -0.61055691   -0.25144987               0.00249870               0.00248865               0.00000000 
  -0.61055691   -0.19299899               0.00318812               0.00320408               0.00000000 
  -0.61055691   -0.13079160               0.00391163               0.00397013               0.00000000 
  -0.61055691   -0.06603848               0.00457103               0.00467488               0.00000000 
  -0.61055691    0.00000000               0.00504718               0.00518660               0.00000000 
  -0.61055691    0.06603848               0.00524272               0.00540090               0.00000000 
  -0.61055691    0.13079160               0.00513549               0.00528417               0.00000000 
  -0.61055691    0.19299899               0.00478204               0.00488578               0.00000000 
  -0.61055691    0.25144987               0.00427173               0.00431208               0.00000000 
  -0.61055691    0.30500655               0.00369321               0.00368170               0.00000000 
  -0.61055691    0.35262658               0.00312562               0.00308896               0.00000000 
  -0.61055691    0.39338305               0.00262867               0.00258938               0.00000000 
  -0.61055691    0.42648260               0.00223398               0.00220423               0.00000000 
  -0.61055691    0.45128061               0.00194992               0.00193343               0.00000000 
  -0.61055691    0.46729243               0.00177345               0.00176810               0.00000000 
  -0.61055691    0.47415480               0.00169970               0.00169970               0.00000000 
  -0.41376232   -0.54679264               0.00216141               0.00216141               0.00000000 
  -0.41376232   -0.53887899               0.00232012               0.00232066               0.00000000 
  -0.41376232   -0.52041424               0.00272787               0.00272967               0.00000000 
  -0.41376232   -0.49181732               0.00347180               0.00347574               0.00000000 
  -0.41376232   -0.45364711               0.00470312               0.00471053               0.00000000 
  -0.41376232   -0.40664697               0.00664020               0.00665270               0.00000000 
  -0.41376232   -0.35173182               0.00954447               0.00956117               0.00000000 
  -0.41376232   -0.28997057               0.01363250               0.01364321               0.00000000 
  -0.41376232   -0.22256535               0.01889666               0.01887787               0.00000000 
  -0.41376232   -0.15082813               0.02488055               0.02480557               0.00000000 
  -0.41376232   -0.07615520               0.03058522               0.03044333               0.00000000 
  -0.41376232    0.00000000               0.03470752               0.03451019               0.00000000 
  -0.41376232    0.07615520               0.03618181               0.03595779               0.00000000 
  -0.41376232    0.15082813               0.03469964               0.03449400               0.00000000 
  -0.41376232    0.22256535               0.03084856               0.03070816               0.00000000 
  -0.41376232    0.28997057               0.02577491               0.02571646               0.00000000 
  -0.41376232    0.35173182               0.02062528               0.02062723               0.00000000 
  -0.41376232    0.40664697               0.01615465               0.01618318               0.00000000 
  -0.41376232    0.45364711               0.01266666               0.01269862               0.00000000 
  -0.41376232    0.49181732               0.01016036               0.01018527               0.00000000 
  -0.41376232    0.52041424               0.00850065               0.00851502               0.00000000 
  -0.41376232    0.53887899               0.00753249               0.00753731               0.00000000 
  -0.41376232    0.54679264               0.00714259               0.00714259               0.00000000 
  -0.20891431   -0.64102471               0.00341820               0.00341820               0.00000000 
  -0.20891431   -0.63174726               0.00376210               0.00376245               0.00000000 
  -0.20891431   -0.61010037               0.00468227               0.00468373               0.00000000 
  -0.20891431   -0.57657516               0.00648371               0.00648741               0.00000000 
  -0.20891431   -0.53182685               0.00976236               0.00976918               0.00000000 
  -0.20891431   -0.47672690               0.01552833               0.01553848               0.00000000 
  -0.20891431   -0.41234789               0.02525482               0.02527104               0.00000000 
  -0.20891431   -0.33994295               0.04059798               0.04063598               0.00000000 
  -0.20891431   -0.26092138               0.06246052               0.06255796               0.00000000 
  -0.20891431   -0.17682125               0.08941552               0.08961852               0.00000000 
  -0.20891431   -0.08927949               0.11648160               0.11680918               0.00000000 
  -0.20891431    0.00000000               0.13604012               0.13646303               0.00000000 
  -0.20891431    0.08927949               0.14153355               0.14198349               0.00000000 
  -0.20891431    0.17682125               0.13151577               0.13190757               0.00000000 
  -0.20891431    0.26092138               0.11039341               0.11066191               0.00000000 
  -0.20891431    0.33994295               0.08529954               0.08543748               0.00000000 
  -0.20891431    0.41234789               0.06219369               0.06224454               0.00000000 
  -0.20891431    0.47672690               0.04404337               0.04405622               0.00000000 
  -0.20891431    0.53182685               0.03124296               0.03124412               0.00000000 
  -0.20891431    0.57657516               0.02288284               0.02288046               0.00000000 
  -0.20891431    0.61010037               0.01777803               0.01777517               0.00000000 
  -0.20891431    0.63174726               0.01497209               0.01497076               0.00000000 
  -0.20891431    0.64102471               0.01387966               0.01387966               0.00000000 
   0.00000000   -0.75000000               0.00218635               0.00218635               0.00000000 
   0.00000000   -0.73914537               0.00248914               0.00248823               0.00000000 
   0.00000000   -0.71381847               0.00334570               0.00334240               0.00000000 
   0.00000000   -0.67459392               0.00518989               0.00518281               0.00000000 
   0.00000000   -0.62223832               0.00899950               0.00898904               0.00000000 
   0.00000000   -0.55777128               0.01677517               0.01676539               0.00000000 
   0.00000000   -0.48244773               0.03217666               0.03217124               0.00000000 
   0.00000000   -0.39773383               0.06068992               0.06067635               0.00000000 
   0.00000000   -0.30527845               0.10772676               0.10765953               0.00000000 
   0.00000000   -0.20688116               0.17309714               0.17290942               0.00000000 
   0.00000000   -0.10445715               0.24417837               0.24382913               0.00000000 
   0.00000000    0.00000000               0.29636165               0.29587557               0.00000000 
   0.00000000    0.10445715               0.30690979               0.30637685               0.00000000 
   0.00000000    0.20688116               0.27224693               0.27178729               0.00000000 
   0.00000000    0.30527845               0.21013531               0.20983608               0.00000000 
   0.00000000    0.39773383               0.14488753               0.14475153               0.00000000 
   0.00000000    0.48244773               0.09239859               0.09236298               0.00000000 
   0.00000000    0.55777128               0.05674943               0.05674859               0.00000000 
   0.00000000    0.62223832               0.03502936               0.03503151               0.00000000 
   0.00000000    0.67459392               0.02264699               0.02264730               0.00000000 
   0.00000000    0.71381847               0.01591257               0.01591290               0.00000000 
   0.00000000    0.73914537               0.01252029               0.01252063               0.00000000 
   0.00000000    0.75000000               0.01126579               0.01126579               0.00000000 
   0.20891431   -0.85897529               0.00062398               0.00062398               0.00000000 
   0.20891431   -0.84654348               0.00073710               0.00073789               0.00000000 
   0.20891431   -0.81753657               0.00107919               0.00108172               0.00000000 
   0.20891431   -0.77261268               0.00190557               0.00190943               0.00000000 
   0.20891431   -0.71264979               0.00389411               0.00389460               0.00000000 
   0.20891431   -0.63881566               0.00873329               0.00871869               0.00000000 
   0.20891431   -0.55254758               0.02026515               0.02022026               0.00000000 
   0.20891431   -0.45552471               0.04584640               0.04576562               0.00000000 
   0.20891431   -0.34963553               0.09557596               0.09547632               0.00000000 
   0.20891431   -0.23694107               0.17468058               0.17459385               0.00000000 
   0.20891431   -0.11963482               0.26904417               0.26898825               0.00000000 