 TITLE = "ADVECTION DIFFUSION SOLUTION" 
 VARIABLES = "x","y","P","U","V"
 ZONE I= 25,J= 25, F=POINT
   0.66666667    0.33333333               0.38619338               0.13865217               0.00000000 
   0.65852663    0.34147337               0.38286742               0.14011399               0.00000000 
   0.63950943    0.36049057               0.37451553               0.14318383               0.00000000 
   0.60998851    0.39001149               0.36072520               0.14692508               0.00000000 
   0.57045098    0.42954902               0.34129545               0.14983123               0.00000000 
   0.52154644    0.47845356               0.31608085               0.14991083               0.00000000 
   0.46407803    0.53592197               0.28488836               0.14506385               0.00000000 
   0.39898943    0.60101057               0.24770265               0.13378666               0.00000000 
   0.32734941    0.67265059               0.20538914               0.11599065               0.00000000 
   0.25033431    0.74966569               0.16039694               0.09344201               0.00000000 
   0.16920871    0.83079129               0.11668184               0.06936270               0.00000000 
   0.08530471    0.91469529               0.07849094               0.04724242               0.00000000 
   0.00000000    1.00000000               0.04872289               0.02953998               0.00000000 
  -0.08530471    1.08530471               0.02801403               0.01705534               0.00000000 
  -0.16920871    1.16920871               0.01506457               0.00919280               0.00000000 
  -0.25033431    1.25033431               0.00769254               0.00469969               0.00000000 
  -0.32734941    1.32734941               0.00380692               0.00232528               0.00000000 
  -0.39898943    1.39898943               0.00187339               0.00113991               0.00000000 
  -0.46407803    1.46407803               0.00094827               0.00056808               0.00000000 
  -0.52154644    1.52154644               0.00051702               0.00029553               0.00000000 
  -0.57045098    1.57045098               0.00032178               0.00016470               0.00000000 
  -0.60998851    1.60998851               0.00023789               0.00010072               0.00000000 
  -0.63950943    1.63950943               0.00020578               0.00006899               0.00000000 
  -0.65852663    1.65852663               0.00019569               0.00005379               0.00000000 
  -0.66666667    1.66666667               0.00019358               0.00004830               0.00000000 
   0.67887672    0.33943836               0.39851954               0.14709918               0.00000000 
   0.67073669    0.34757840               0.39505716               0.14869054               0.00000000 
   0.65171948    0.36659560               0.38651267               0.15204497               0.00000000 
   0.62219857    0.39611651               0.37240205               0.15617188               0.00000000 
   0.58266103    0.43565405               0.35249754               0.15947167               0.00000000 
   0.53375649    0.48455859               0.32665709               0.15981759               0.00000000 
   0.47628809    0.54202699               0.29468259               0.15494784               0.00000000 
   0.41119949    0.60711560               0.25653783               0.14321372               0.00000000 
   0.33955946    0.67875562               0.21306465               0.12446160               0.00000000 
   0.26254436    0.75577072               0.16672799               0.10052481               0.00000000 
   0.18141876    0.83689632               0.12157141               0.07482307               0.00000000 
   0.09751476    0.92080032               0.08199058               0.05110465               0.00000000 
   0.01221006    1.00610503               0.05103342               0.03204628               0.00000000 
  -0.07309465    1.09140973               0.02942399               0.01855526               0.00000000 
  -0.15699865    1.17531374               0.01586646               0.01002936               0.00000000 
  -0.23812425    1.25643933               0.00812377               0.00514130               0.00000000 
  -0.31513935    1.33345444               0.00403038               0.00255034               0.00000000 
  -0.38677938    1.40509446               0.00198763               0.00125324               0.00000000 
  -0.45186798    1.47018306               0.00100736               0.00062592               0.00000000 
  -0.50933638    1.52765147               0.00054889               0.00032624               0.00000000 
  -0.55824092    1.57655600               0.00034021               0.00018212               0.00000000 
  -0.59777846    1.61609354               0.00024974               0.00011152               0.00000000 
  -0.62729937    1.64561445               0.00021438               0.00007646               0.00000000 
  -0.64631657    1.66463166               0.00020287               0.00005966               0.00000000 
  -0.65445661    1.67277169               0.00020025               0.00005358               0.00000000 
   0.70740253    0.35370126               0.43046902               0.16822312               0.00000000 
   0.69926249    0.36184130               0.42656321               0.17015119               0.00000000 
   0.68024529    0.38085851               0.41724031               0.17424851               0.00000000 
   0.65072438    0.41037942               0.40217133               0.17939142               0.00000000 
   0.61118684    0.44991695               0.38104005               0.18374863               0.00000000 
   0.56228230    0.49882149               0.35364716               0.18485227               0.00000000 
   0.50481389    0.55628990               0.31974270               0.18002630               0.00000000 
   0.43972529    0.62137850               0.27921232               0.16724143               0.00000000 
   0.36808527    0.69301852               0.23282272               0.14615909               0.00000000 
   0.29107017    0.77003363               0.18307334               0.11876194               0.00000000 
   0.20994457    0.85115922               0.13423193               0.08895955               0.00000000 
   0.12604057    0.93506322               0.09107913               0.06115963               0.00000000 
   0.04073586    1.02036793               0.05705235               0.03860796               0.00000000 
  -0.04456884    1.10567264               0.03310868               0.02250407               0.00000000 
  -0.12847285    1.18957664               0.01796897               0.01224376               0.00000000 
  -0.20959844    1.27070224               0.00925821               0.00631637               0.00000000 
  -0.28661355    1.34771734               0.00462029               0.00315215               0.00000000 
  -0.35825357    1.41935736               0.00229044               0.00155767               0.00000000 
  -0.42334217    1.48444596               0.00116496               0.00078192               0.00000000 
  -0.48081058    1.54191437               0.00063490               0.00040939               0.00000000 
  -0.52971512    1.59081891               0.00039112               0.00022941               0.00000000 
  -0.56925265    1.63035644               0.00028376               0.00014091               0.00000000 
  -0.59877356    1.65987736               0.00024039               0.00009684               0.00000000 
  -0.61779077    1.67889456               0.00022550               0.00007567               0.00000000 
  -0.62593080    1.68703460               0.00022180               0.00006800               0.00000000 
   0.75168390    0.37584195               0.48823717               0.20490562               0.00000000 
   0.74354386    0.38398198               0.48362754               0.20745887               0.00000000 
   0.72452665    0.40299919               0.47281692               0.21294522               0.00000000 
   0.69500574    0.43252010               0.45581301               0.22001669               0.00000000 
   0.65546821    0.47205764               0.43243143               0.22644404               0.00000000 
   0.60656367    0.52096218               0.40236837               0.22915947               0.00000000 
   0.54909526    0.57843058               0.36519393               0.22473794               0.00000000 
   0.48400666    0.64351918               0.32056978               0.21043267               0.00000000 
   0.41236664    0.71515920               0.26907557               0.18551073               0.00000000 
   0.33535153    0.79217431               0.21324235               0.15215198               0.00000000 
   0.25422594    0.87329991               0.15773896               0.11509767               0.00000000 
   0.17032194    0.95720391               0.10805552               0.07993902               0.00000000 
   0.08501723    1.04250861               0.06836467               0.05098762               0.00000000 
  -0.00028748    1.12781332               0.04007746               0.03002913               0.00000000 
  -0.08419148    1.21171732               0.02197098               0.01650503               0.00000000 
  -0.16531708    1.29284292               0.01143125               0.00859890               0.00000000 
  -0.24233218    1.36985802               0.00575772               0.00433151               0.00000000 
  -0.31397220    1.44149805               0.00287829               0.00215914               0.00000000 
  -0.37906080    1.50658665               0.00147386               0.00109244               0.00000000 
  -0.43652921    1.56405505               0.00080596               0.00057597               0.00000000 
  -0.48543375    1.61295959               0.00049534               0.00032468               0.00000000 
  -0.52497128    1.65249713               0.00035622               0.00020038               0.00000000 
  -0.55449220    1.68201804               0.00029851               0.00013820               0.00000000 
  -0.57350940    1.70103524               0.00027773               0.00010824               0.00000000 
  -0.58164944    1.70917528               0.00027225               0.00009737               0.00000000 
   0.81099020    0.40549510               0.58068670               0.26130887               0.00000000 
   0.80285016    0.41363514               0.57516509               0.26491503               0.00000000 
   0.78383296    0.43265234               0.56232605               0.27276223               0.00000000 
   0.75431205    0.46217325               0.54245962               0.28317491               0.00000000 
   0.71477451    0.50171079               0.51566809               0.29332533               0.00000000 
   0.66586997    0.55061533               0.48166104               0.29921054               0.00000000 
   0.60840157    0.60808373               0.43969954               0.29618980               0.00000000 
   0.54331297    0.67317234               0.38896096               0.28028452               0.00000000 
   0.47167294    0.74481236               0.32959589               0.24998243               0.00000000 
   0.39465784    0.82182746               0.26409924               0.20761167               0.00000000 
   0.31353224    0.90295306               0.19775834               0.15913453               0.00000000 
   0.22962824    0.98685706               0.13724717               0.11204087               0.00000000 
   0.14432353    1.07216177               0.08801454               0.07246043               0.00000000 
   0.05901883    1.15746647               0.05230651               0.04327106               0.00000000 
  -0.02488518    1.24137048               0.02906551               0.02410965               0.00000000 
  -0.10601077    1.32249607               0.01532222               0.01272744               0.00000000 
  -0.18302588    1.39951118               0.00781436               0.00649189               0.00000000 
  -0.25466590    1.47115120               0.00395175               0.00327392               0.00000000 
  -0.31975450    1.53623980               0.00204418               0.00167409               0.00000000 
  -0.37722291    1.59370821               0.00112661               0.00089091               0.00000000 
  -0.42612744    1.64261274               0.00069505               0.00050621               0.00000000 
  -0.46566498    1.68215028               0.00049924               0.00031444               0.00000000 
  -0.49518589    1.71167119               0.00041645               0.00021791               0.00000000 
  -0.51420310    1.73068840               0.00038573               0.00017119               0.00000000 
  -0.52234313    1.73882843               0.00037728               0.00015421               0.00000000 
   0.88434701    0.44217350               0.71671837               0.34142938               0.00000000 
   0.87620697    0.45031354               0.71023648               0.34670788               0.00000000 
   0.85718977    0.46933074               0.69521245               0.35834468               0.00000000 
   0.82766885    0.49885166               0.67212662               0.37423791               0.00000000 
   0.78813132    0.53838919               0.64130062               0.39074459               0.00000000 
   0.73922678    0.58729373               0.60247012               0.40252064               0.00000000 
   0.68175837    0.64476214               0.55447612               0.40308494               0.00000000 
   0.61666977    0.70985074               0.49566258               0.38646112               0.00000000 
   0.54502975    0.78149076               0.42532807               0.34967786               0.00000000 
   0.46801465    0.85850587               0.34571188               0.29493849               0.00000000 
   0.38688905    0.93963146               0.26293220               0.22978616               0.00000000 
   0.30298505    1.02353546               0.18550164               0.16453494               0.00000000 
   0.21768034    1.10884017               0.12098669               0.10824979               0.00000000 
   0.13237563    1.19414488               0.07313507               0.06576095               0.00000000 
   0.04847163    1.27804888               0.04132764               0.03726351               0.00000000 
  -0.03265396    1.35917448               0.02214378               0.01999464               0.00000000 
  -0.10966907    1.43618958               0.01146960               0.01035773               0.00000000 
  -0.18130909    1.50782960               0.00588467               0.00529923               0.00000000 
  -0.24639769    1.57291820               0.00308452               0.00274539               0.00000000 
  -0.30386610    1.63038661               0.00171975               0.00147800               0.00000000 
  -0.35277064    1.67929115               0.00107062               0.00084809               0.00000000 
  -0.39230817    1.71882868               0.00077306               0.00053100               0.00000000 
  -0.42182908    1.74834960               0.00064582               0.00037018               0.00000000 
  -0.44084629    1.76736680               0.00059779               0.00029193               0.00000000 
  -0.44898633    1.77550684               0.00058430               0.00026340               0.00000000 
   0.97054962    0.48527481               0.89894127               0.44599789               0.00000000 
   0.96240958    0.49341485               0.89179872               0.45376438               0.00000000 
   0.94339238    0.51243205               0.87523856               0.47110519               0.00000000 
   0.91387147    0.54195296               0.84979149               0.49544118               0.00000000 
   0.87433393    0.58149050               0.81580675               0.52214595               0.00000000 
   0.82542939    0.63039504               0.77283555               0.54412955               0.00000000 
   0.76796098    0.68786344               0.71902063               0.55233706               0.00000000 
   0.70287238    0.75295204               0.65138757               0.53775979               0.00000000 
   0.63123236    0.82459207               0.56773303               0.49487717               0.00000000 
   0.55421726    0.90160717               0.46955300               0.42506831               0.00000000 
   0.47309166    0.98273277               0.36386426               0.33757530               0.00000000 
   0.38918766    1.06663677               0.26178496               0.24655248               0.00000000 
   0.30388295    1.15194148               0.17419258               0.16551083               0.00000000 
   0.21857824    1.23724618               0.10743350               0.10259248               0.00000000 
   0.13467424    1.32115019               0.06192236               0.05929739               0.00000000 
   0.05354865    1.40227578               0.03382026               0.03243285               0.00000000 
  -0.02346646    1.47929089               0.01783956               0.01710937               0.00000000 
  -0.09510648    1.55093091               0.00931006               0.00890285               0.00000000 
  -0.16019508    1.61601951               0.00495701               0.00468376               0.00000000 
  -0.21766349    1.67348792               0.00280307               0.00255598               0.00000000 
  -0.26656803    1.72239245               0.00176623               0.00148368               0.00000000 
  -0.30610556    1.76192999               0.00128684               0.00093767               0.00000000 
  -0.33562647    1.79145090               0.00108060               0.00065826               0.00000000 
  -0.35464368    1.81046811               0.00100239               0.00052145               0.00000000 
  -0.36278372    1.81860814               0.00098032               0.00047139               0.00000000 
   1.06818252    0.53409126               1.11382662               0.56762287               0.00000000 
   1.06004248    0.54223130               1.10684904               0.57876590               0.00000000 
   1.04102528    0.56124850               1.09062375               0.60394759               0.00000000 
   1.01150437    0.59076941               1.06555813               0.64018029               0.00000000 
   0.97196683    0.63030695               1.03176499               0.68185867               0.00000000 
   0.92306229    0.67921149               0.98825510               0.71992124               0.00000000 
   0.86559389    0.73667989               0.93199383               0.74209887               0.00000000 
   0.80050528    0.80176849               0.85799164               0.73520068               0.00000000 
   0.72886526    0.87340852               0.76160845               0.68966141               0.00000000 
   0.65185016    0.95042362               0.64269900               0.60470349               0.00000000 
   0.57072456    1.03154922               0.50884066               0.49076896               0.00000000 
   0.48682056    1.11545322               0.37435773               0.36657361               0.00000000 
   0.40151585    1.20075793               0.25483649               0.25175974               0.00000000 
   0.31621115    1.28606263               0.16079538               0.15965536               0.00000000 
   0.23230714    1.36996664               0.09478206               0.09437326               0.00000000 
   0.15118155    1.45109223               0.05290321               0.05274983               0.00000000 
   0.07416644    1.52810734               0.02848703               0.02840634               0.00000000 
   0.00252642    1.59974736               0.01515568               0.01506716               0.00000000 
  -0.06256218    1.66483596               0.00821312               0.00806597               0.00000000 
  -0.12003059    1.72230437               0.00471861               0.00446987               0.00000000 
  -0.16893512    1.77120890               0.00301429               0.00262881               0.00000000 
  -0.20847266    1.81074644               0.00221994               0.00167903               0.00000000 
  -0.23799357    1.84026735               0.00187762               0.00118805               0.00000000 
  -0.25701078    1.85928456               0.00174853               0.00094594               0.00000000 
  -0.26515081    1.86742459               0.00171249               0.00085699               0.00000000 
   1.17564255    0.58782128               1.32321310               0.68636365               0.00000000 
   1.16750252    0.59596131               1.31774535               0.70151660               0.00000000 
   1.14848531    0.61497852               1.30495924               0.73614850               0.00000000 
   1.11896440    0.64449943               1.28498181               0.78712269               0.00000000 
   1.07942686    0.68403697               1.25745631               0.84818186               0.00000000 
   1.03052232    0.73294150               1.22052118               0.90851387               0.00000000 
   0.97305392    0.79040991               1.16948377               0.95247834               0.00000000 
   0.90796532    0.85549851               1.09659281               0.96187840               0.00000000 
   0.83632530    0.92713853               0.99364780               0.92152827               0.00000000 
   0.75931019    1.00415364               0.85750009               0.82653421               0.00000000 
   0.67818459    1.08527923               0.69522420               0.68701552               0.00000000 
   0.59428059    1.16918324               0.52424686               0.52598934               0.00000000 
   0.50897589    1.25448794               0.36594045               0.37043106               0.00000000 
   0.42367118    1.33979265               0.23677041               0.24088511               0.00000000 
   0.33976718    1.42369665               0.14305659               0.14594920               0.00000000 
   0.25864158    1.50482225               0.08177833               0.08354971               0.00000000 
   0.18162648    1.58183735               0.04504614               0.04602405               0.00000000 
   0.10998645    1.65347737               0.02447757               0.02493213               0.00000000 
   0.04489785    1.71856598               0.01352338               0.01360522               0.00000000 
  -0.01257055    1.77603438               0.00790441               0.00766815               0.00000000 
  -0.06147509    1.82493892               0.00512471               0.00457516               0.00000000 
  -0.10101263    1.86447646               0.00381916               0.00295638               0.00000000 
  -0.13053354    1.89399737               0.00325749               0.00211013               0.00000000 
  -0.14955074    1.91301457               0.00304878               0.00168955               0.00000000 
  -0.15769078    1.92115461               0.00299200               0.00153435               0.00000000 
   1.29116521    0.64558260               1.46728544               0.77078278               0.00000000 
   1.28302517    0.65372264               1.46481308               0.78983137               0.00000000 
   1.26400797    0.67273985               1.45894761               0.83382599               0.00000000 
   1.23448706    0.70226076               1.44949064               0.89993168               0.00000000 
   1.19494952    0.74179829               1.43555808               0.98195097               0.00000000 
   1.14604498    0.79070283               1.41434184               1.06820209               0.00000000 
   1.08857657    0.84817124               1.37936498               1.14044661               0.00000000 
   1.02348797    0.91325984               1.31977336               1.17566953               0.00000000 
   0.95184795    0.98489986               1.22296268               1.15217746               0.00000000 
   0.87483285    1.06191497               1.08126297               1.05890224               0.00000000 
   0.79370725    1.14304056               0.89936949               0.90304796               0.00000000 
   0.70980325    1.22694456               0.69641147               0.70999010               0.00000000 
   0.62449854    1.31224927               0.49941099               0.51369617               0.00000000 
   0.53919384    1.39755398               0.33196767               0.34318830               0.00000000 
   0.45528983    1.48145798               0.20597086               0.21352823               0.00000000 
   0.37416424    1.56258358               0.12080512               0.12541450               0.00000000 
   0.29714913    1.63959868               0.06818556               0.07079001               0.00000000 
   0.22550911    1.71123870               0.03790187               0.03922764               0.00000000 
   0.16042051    1.77632730               0.02137742               0.02185161               0.00000000 
   0.10295210    1.83379571               0.01272639               0.01254200               0.00000000 
   0.05404756    1.88270025               0.00838141               0.00759982               0.00000000 
   0.01451003    1.92223778               0.00632554               0.00497269               0.00000000 
  -0.01501088    1.95175870               0.00544524               0.00358260               0.00000000 
  -0.03402809    1.97077590               0.00512576               0.00288584               0.00000000 
  -0.04216812    1.97891594               0.00504239               0.00262750               0.00000000 
   1.41285360    0.70642680               1.48682737               0.78899298               0.00000000 
   1.40471357    0.71456684               1.48826819               0.81068833               0.00000000 
   1.38569636    0.73358404               1.49153585               0.86128727               0.00000000 
   1.35617545    0.76310495               1.49622449               0.93876263               0.00000000 
   1.31663791    0.80264249               1.50113416               1.03791021               0.00000000 
   1.26773338    0.85154703               1.50286136               1.14763335               0.00000000 
   1.21026497    0.90901544               1.49367506               1.24894760               0.00000000 
   1.14517637    0.97410404               1.46019535               1.31576157               0.00000000 
   1.07353635    1.04574406               1.38558304               1.32063380               0.00000000 
   0.99652124    1.12275916               1.25677981               1.24528323               0.00000000 
   0.91539565    1.20388476               1.07395412               1.09110712               0.00000000 
   0.83149164    1.28778876               0.85515490               0.88217630               0.00000000 
   0.74618694    1.37309347               0.63092207               0.65668745               0.00000000 
   0.66088223    1.45839817               0.43147392               0.45137152               0.00000000 
   0.57697823    1.54230218               0.27529900               0.28880420               0.00000000 
   0.49585263    1.62342777               0.16589147               0.17427708               0.00000000 
   0.41883753    1.70044288               0.09606802               0.10092847               0.00000000 
   0.34719750    1.77208290               0.05469180               0.05728026               0.00000000 
   0.28210890    1.83717150               0.03152496               0.03260762               0.00000000 
   0.22464050    1.89463991               0.01913181               0.01907751               0.00000000 
   0.17573596    1.94354445               0.01280829               0.01175000               0.00000000 
   0.13619842    1.98308198               0.00979534               0.00779022               0.00000000 
   0.10667751    2.01260289               0.00851507               0.00566800               0.00000000 
   0.08766031    2.03162010               0.00806548               0.00459471               0.00000000 
   0.07952027    2.03976013               0.00795522               0.00419476               0.00000000 
   1.53870961    0.76935480               1.35706551               0.72649419               0.00000000 
   1.53056957    0.77749484               1.36215431               0.74856875               0.00000000 
   1.51155237    0.79651204               1.37402479               0.80052177               0.00000000 
   1.48203145    0.82603296               1.39229609               0.88145659               0.00000000 
   1.44249392    0.86557049               1.41585402               0.98792658               0.00000000 
   1.39358938    0.91447503               1.44138922               1.11093916               0.00000000 
   1.33612097    0.97194344               1.46105815               1.23320644               0.00000000 
   1.27103237    1.03703204               1.46056399               1.32866087               0.00000000 
   1.19939235    1.10867206               1.42046808               1.36692804               0.00000000 
   1.12237725    1.18568717               1.32300415               1.32361737               0.00000000 
   1.04125165    1.26681276               1.16255287               1.19263687               0.00000000 
   0.95734765    1.35071676               0.95283282               0.99256451               0.00000000 