 TITLE = "ADVECTION DIFFUSION SOLUTION" 
 VARIABLES = "x","y","P","U","V"
 ZONE I= 25,J= 25, F=POINT
   0.66666667    0.33333333               0.19810280               0.09273465               0.00000000 
   0.65852663    0.34147337               0.19652368               0.09276622               0.00000000 
   0.63950943    0.36049057               0.19290049               0.09276047               0.00000000 
   0.60998851    0.39001149               0.18728213               0.09253122               0.00000000 
   0.57045098    0.42954902               0.17963782               0.09180807               0.00000000 
   0.52154644    0.47845356               0.16993070               0.09027105               0.00000000 
   0.46407803    0.53592197               0.15819246               0.08760435               0.00000000 
   0.39898943    0.60101057               0.14460018               0.08356531               0.00000000 
   0.32734941    0.67265059               0.12952215               0.07805530               0.00000000 
   0.25033431    0.74966569               0.11352213               0.07117109               0.00000000 
   0.16920871    0.83079129               0.09730810               0.06321456               0.00000000 
   0.08530471    0.91469529               0.08163908               0.05464953               0.00000000 
   0.00000000    1.00000000               0.06721018               0.04601458               0.00000000 
  -0.08530471    1.08530471               0.05455150               0.03781934               0.00000000 
  -0.16920871    1.16920871               0.04396572               0.03045772               0.00000000 
  -0.25033431    1.25033431               0.03551908               0.02416260               0.00000000 
  -0.32734941    1.32734941               0.02907783               0.01900666               0.00000000 
  -0.39898943    1.39898943               0.02437329               0.01493710               0.00000000 
  -0.46407803    1.46407803               0.02107243               0.01182446               0.00000000 
  -0.52154644    1.52154644               0.01883874               0.00950825               0.00000000 
  -0.57045098    1.57045098               0.01737390               0.00783032               0.00000000 
  -0.60998851    1.60998851               0.01644041               0.00665408               0.00000000 
  -0.63950943    1.63950943               0.01586737               0.00587268               0.00000000 
  -0.65852663    1.65852663               0.01554568               0.00541032               0.00000000 
  -0.66666667    1.66666667               0.01541761               0.00522179               0.00000000 
   0.67887672    0.33943836               0.20413271               0.09542086               0.00000000 
   0.67073669    0.34757840               0.20252719               0.09546122               0.00000000 
   0.65171948    0.36659560               0.19881071               0.09547369               0.00000000 
   0.62219857    0.39611651               0.19304669               0.09526623               0.00000000 
   0.58266103    0.43565405               0.18520758               0.09455959               0.00000000 
   0.53375649    0.48455859               0.17525216               0.09302258               0.00000000 
   0.47628809    0.54202699               0.16320831               0.09032718               0.00000000 
   0.41119949    0.60711560               0.14925235               0.08621945               0.00000000 
   0.33955946    0.67875562               0.13375779               0.08059292               0.00000000 
   0.26254436    0.75577072               0.11730024               0.07354227               0.00000000 
   0.18141876    0.83689632               0.10060592               0.06537438               0.00000000 
   0.09751476    0.92080032               0.08445586               0.05656477               0.00000000 
   0.01221006    1.00610503               0.06956782               0.04766840               0.00000000 
  -0.07309465    1.09140973               0.05649145               0.03921249               0.00000000 
  -0.15699865    1.17531374               0.04554325               0.03160655               0.00000000 
  -0.23812425    1.25643933               0.03679618               0.02509460               0.00000000 
  -0.31513935    1.33345444               0.03011656               0.01975520               0.00000000 
  -0.38677938    1.40509446               0.02523056               0.01553665               0.00000000 
  -0.45186798    1.47018306               0.02179683               0.01230718               0.00000000 
  -0.50933638    1.52765147               0.01946937               0.00990218               0.00000000 
  -0.55824092    1.57655600               0.01794073               0.00815877               0.00000000 
  -0.59777846    1.61609354               0.01696554               0.00693598               0.00000000 
  -0.62729937    1.64561445               0.01636679               0.00612331               0.00000000 
  -0.64631657    1.66463166               0.01603102               0.00564229               0.00000000 
  -0.65445661    1.67277169               0.01589768               0.00544613               0.00000000 
   0.70740253    0.35370126               0.21834304               0.10188081               0.00000000 
   0.69926249    0.36184130               0.21670217               0.10194354               0.00000000 
   0.68024529    0.38085851               0.21283954               0.10200278               0.00000000 
   0.65072438    0.41037942               0.20677894               0.10185228               0.00000000 
   0.61118684    0.44991695               0.19850531               0.10119145               0.00000000 
   0.56228230    0.49882149               0.18797900               0.09966197               0.00000000 
   0.50481389    0.55628990               0.17522323               0.09690593               0.00000000 
   0.43972529    0.62137850               0.16041368               0.09264165               0.00000000 
   0.36808527    0.69301852               0.14393640               0.08674300               0.00000000 
   0.29107017    0.77003363               0.12639494               0.07929877               0.00000000 
   0.20994457    0.85115922               0.10855869               0.07062704               0.00000000 
   0.12604057    0.93506322               0.09126126               0.06123110               0.00000000 
   0.04073586    1.02036793               0.07527496               0.05170513               0.00000000 
  -0.04456884    1.10567264               0.06119687               0.04261912               0.00000000 
  -0.12847285    1.18957664               0.04937754               0.03442070               0.00000000 
  -0.20959844    1.27070224               0.03990698               0.02738149               0.00000000 
  -0.28661355    1.34771734               0.03265253               0.02159483               0.00000000 
  -0.35825357    1.41935736               0.02732853               0.01701227               0.00000000 
  -0.42334217    1.48444596               0.02357418               0.01349686               0.00000000 
  -0.48081058    1.54191437               0.02102079               0.01087416               0.00000000 
  -0.52971512    1.59081891               0.01933904               0.00897000               0.00000000 
  -0.56925265    1.63035644               0.01826456               0.00763276               0.00000000 
  -0.59877356    1.65987736               0.01760544               0.00674317               0.00000000 
  -0.61779077    1.67889456               0.01723715               0.00621626               0.00000000 
  -0.62593080    1.68703460               0.01709163               0.00600130               0.00000000 
   0.75168390    0.37584195               0.24092117               0.11240928               0.00000000 
   0.74354386    0.38398198               0.23922623               0.11251215               0.00000000 
   0.72452665    0.40299919               0.23519580               0.11265623               0.00000000 
   0.69500574    0.43252010               0.22877144               0.11261211               0.00000000 
   0.65546821    0.47205764               0.21989360               0.11204415               0.00000000 
   0.60656367    0.52096218               0.20852007               0.11054912               0.00000000 
   0.54909526    0.57843058               0.19467441               0.10771926               0.00000000 
   0.48400666    0.64351918               0.17853668               0.10322576               0.00000000 
   0.41236664    0.71515920               0.16051354               0.09690799               0.00000000 
   0.33535153    0.79217431               0.14125320               0.08884248               0.00000000 
   0.25422594    0.87329991               0.12159356               0.07936334               0.00000000 
   0.17032194    0.95720391               0.10245324               0.06901764               0.00000000 
   0.08501723    1.04250861               0.08469343               0.05846326               0.00000000 
  -0.00028748    1.12781332               0.06899015               0.04834097               0.00000000 
  -0.08419148    1.21171732               0.05575157               0.03916243               0.00000000 
  -0.16531708    1.29284292               0.04509826               0.03124652               0.00000000 
  -0.24233218    1.36985802               0.03690154               0.02471290               0.00000000 
  -0.31397220    1.44149805               0.03085855               0.01951998               0.00000000 
  -0.37906080    1.50658665               0.02657785               0.01552347               0.00000000 
  -0.43652921    1.56405505               0.02365447               0.01253340               0.00000000 
  -0.48543375    1.61295959               0.02172336               0.01035729               0.00000000 
  -0.52497128    1.65249713               0.02048878               0.00882605               0.00000000 
  -0.55449220    1.68201804               0.01973354               0.00780584               0.00000000 
  -0.57350940    1.70103524               0.01931405               0.00720093               0.00000000 
  -0.58164944    1.70917528               0.01914921               0.00695400               0.00000000 
   0.81099020    0.40549510               0.27221436               0.12741952               0.00000000 
   0.80285016    0.41363514               0.27045031               0.12758723               0.00000000 
   0.78383296    0.43265234               0.26622486               0.12787024               0.00000000 
   0.75431205    0.46217325               0.25940320               0.12800602               0.00000000 
   0.71477451    0.50171079               0.24983332               0.12760848               0.00000000 
   0.66586997    0.55061533               0.23741820               0.12620919               0.00000000 
   0.60840157    0.60808373               0.22216713               0.12332678               0.00000000 
   0.54331297    0.67317234               0.20426719               0.11856141               0.00000000 
   0.47167294    0.74481236               0.18415519               0.11169819               0.00000000 
   0.39465784    0.82182746               0.16254106               0.10279060               0.00000000 
   0.31353224    0.90295306               0.14035768               0.09219062               0.00000000 
   0.22962824    0.98685706               0.11864322               0.08050452               0.00000000 
   0.14432353    1.07216177               0.09838635               0.06848045               0.00000000 
   0.05901883    1.15746647               0.08037865               0.05686201               0.00000000 
  -0.02488518    1.24137048               0.06511531               0.04625620               0.00000000 
  -0.10601077    1.32249607               0.05276601               0.03705408               0.00000000 
  -0.18302588    1.39951118               0.04321284               0.02941739               0.00000000 
  -0.25466590    1.47115120               0.03613232               0.02331799               0.00000000 
  -0.31975450    1.53623980               0.03109173               0.01860337               0.00000000 
  -0.37722291    1.59370821               0.02763539               0.01506261               0.00000000 
  -0.42612744    1.64261274               0.02534700               0.01247736               0.00000000 
  -0.46566498    1.68215028               0.02388492               0.01065340               0.00000000 
  -0.49518589    1.71167119               0.02299421               0.00943566               0.00000000 
  -0.51420310    1.73068840               0.02250261               0.00871260               0.00000000 
  -0.52234313    1.73882843               0.02231052               0.00841720               0.00000000 
   0.88434701    0.44217350               0.31244278               0.14729284               0.00000000 
   0.87620697    0.45031354               0.31060645               0.14755981               0.00000000 
   0.85718977    0.46933074               0.30617898               0.14805843               0.00000000 
   0.82766885    0.49885166               0.29894943               0.14848225               0.00000000 
   0.78813132    0.53838919               0.28865814               0.14837783               0.00000000 
   0.73922678    0.58729373               0.27510446               0.14718834               0.00000000 
   0.68175837    0.64476214               0.25823612               0.14433086               0.00000000 
   0.61666977    0.70985074               0.23822794               0.13930478               0.00000000 
   0.54502975    0.78149076               0.21554807               0.13181440               0.00000000 
   0.46801465    0.85850587               0.19098251               0.12187266               0.00000000 
   0.38688905    0.93963146               0.16558509               0.10984605               0.00000000 
   0.30298505    1.02353546               0.14054988               0.09641316               0.00000000 
   0.21768034    1.10884017               0.11703576               0.08243999               0.00000000 
   0.13237563    1.19414488               0.09599305               0.06880958               0.00000000 
   0.04847163    1.27804888               0.07804081               0.05626197               0.00000000 
  -0.03265396    1.35917448               0.06342360               0.04529246               0.00000000 
  -0.10966907    1.43618958               0.05204683               0.03612685               0.00000000 
  -0.18130909    1.50782960               0.04356654               0.02876148               0.00000000 
  -0.24639769    1.57291820               0.03749948               0.02303736               0.00000000 
  -0.30386610    1.63038661               0.03332418               0.01871805               0.00000000 
  -0.35277064    1.67929115               0.03055580               0.01555164               0.00000000 
  -0.39230817    1.71882868               0.02878989               0.01331027               0.00000000 
  -0.42182908    1.74834960               0.02771927               0.01181004               0.00000000 
  -0.44084629    1.76736680               0.02713234               0.01091766               0.00000000 
  -0.44898633    1.77550684               0.02690422               0.01055273               0.00000000 
   0.97054962    0.48527481               0.36134893               0.17216839               0.00000000 
   0.96240958    0.49341485               0.35945556               0.17258091               0.00000000 
   0.94339238    0.51243205               0.35485854               0.17339982               0.00000000 
   0.91387147    0.54195296               0.34726472               0.17426381               0.00000000 
   0.87433393    0.58149050               0.33629397               0.17463450               0.00000000 
   0.82542939    0.63039504               0.32161086               0.17384164               0.00000000 
   0.76796098    0.68786344               0.30305171               0.17116898               0.00000000 
   0.70287238    0.75295204               0.28073524               0.16597936               0.00000000 
   0.63123236    0.82459207               0.25514047               0.15786165               0.00000000 
   0.55421726    0.90160717               0.22713134               0.14676173               0.00000000 
   0.47309166    0.98273277               0.19790247               0.13304894               0.00000000 
   0.38918766    1.06663677               0.16883848               0.11748165               0.00000000 
   0.30388295    1.15194148               0.14131373               0.10106992               0.00000000 
   0.21857824    1.23724618               0.11648640               0.08487566               0.00000000 
   0.13467424    1.32115019               0.09514482               0.06981616               0.00000000 
   0.05354865    1.40227578               0.07764324               0.05653109               0.00000000 
  -0.02346646    1.47929089               0.06393089               0.04534029               0.00000000 
  -0.09510648    1.55093091               0.05364922               0.03628200               0.00000000 
  -0.16019508    1.61601951               0.04625811               0.02919677               0.00000000 
  -0.21766349    1.67348792               0.04115582               0.02382035               0.00000000 
  -0.26656803    1.72239245               0.03777049               0.01986017               0.00000000 
  -0.30610556    1.76192999               0.03561615               0.01704598               0.00000000 
  -0.33562647    1.79145090               0.03431692               0.01515667               0.00000000 
  -0.35464368    1.81046811               0.03360941               0.01403049               0.00000000 
  -0.36278372    1.81860814               0.03333592               0.01356941               0.00000000 
   1.06818252    0.53409126               0.41775063               0.20166271               0.00000000 
   1.06004248    0.54223130               0.41584079               0.20227927               0.00000000 
   1.04102528    0.56124850               0.41116528               0.20355250               0.00000000 
   1.01150437    0.59076941               0.40333782               0.20505661               0.00000000 
   0.97196683    0.63030695               0.39184189               0.20615215               0.00000000 
   0.92306229    0.67921149               0.37618088               0.20603096               0.00000000 
   0.86559389    0.73667989               0.35603709               0.20381021               0.00000000 
   0.80050528    0.80176849               0.33142147               0.19867594               0.00000000 
   0.72886526    0.87340852               0.30278164               0.19005911               0.00000000 
   0.65185016    0.95042362               0.27103933               0.17780127               0.00000000 
   0.57072456    1.03154922               0.23753394               0.16225127               0.00000000 
   0.48682056    1.11545322               0.20386619               0.14424445               0.00000000 
   0.40151585    1.20075793               0.17166826               0.12495474               0.00000000 
   0.31621115    1.28606263               0.14235832               0.10566123               0.00000000 
   0.23230714    1.36996664               0.11694666               0.08750661               0.00000000 
   0.15118155    1.45109223               0.09594189               0.07132255               0.00000000 
   0.07416644    1.52810734               0.07936760               0.05756173               0.00000000 
   0.00252642    1.59974736               0.06686473               0.04632992               0.00000000 
  -0.06256218    1.66483596               0.05783550               0.03747965               0.00000000 
  -0.12003059    1.72230437               0.05158608               0.03072070               0.00000000 
  -0.16893512    1.77120890               0.04743966               0.02571502               0.00000000 
  -0.20847266    1.81074644               0.04480909               0.02214201               0.00000000 
  -0.23799357    1.84026735               0.04323210               0.01973502               0.00000000 
  -0.25701078    1.85928456               0.04237964               0.01829682               0.00000000 
  -0.26515081    1.86742459               0.04205201               0.01770722               0.00000000 
   1.17564255    0.58782128               0.47910732               0.23457457               0.00000000 
   1.16750252    0.59596131               0.47725107               0.23546261               0.00000000 
   1.14848531    0.61497852               0.47265766               0.23734690               0.00000000 
   1.11896440    0.64449943               0.46483736               0.23973102               0.00000000 
   1.07942686    0.68403697               0.45312033               0.24186309               0.00000000 
   1.03052232    0.73294150               0.43682282               0.24277741               0.00000000 
   0.97305392    0.79040991               0.41543440               0.24139455               0.00000000 
   0.90796532    0.85549851               0.38880630               0.23668333               0.00000000 
   0.83632530    0.92713853               0.35729954               0.22786923               0.00000000 
   0.75931019    1.00415364               0.32185053               0.21464196               0.00000000 
   0.67818459    1.08527923               0.28392334               0.19729216               0.00000000 
   0.59428059    1.16918324               0.24534098               0.17671379               0.00000000 
   0.50897589    1.25448794               0.20802380               0.15425095               0.00000000 
   0.42367118    1.33979265               0.17369778               0.13143003               0.00000000 
   0.33976718    1.42369665               0.14365096               0.10966534               0.00000000 
   0.25864158    1.50482225               0.11859924               0.09003210               0.00000000 
   0.18162648    1.58183735               0.09868181               0.07316226               0.00000000 
   0.10998645    1.65347737               0.08356384               0.05926379               0.00000000 
   0.04489785    1.71856598               0.07259769               0.04822189               0.00000000 
  -0.01257055    1.77603438               0.06499144               0.03972881               0.00000000 
  -0.06147509    1.82493892               0.05994848               0.03340068               0.00000000 
  -0.10101263    1.86447646               0.05676193               0.02886137               0.00000000 
  -0.13053354    1.89399737               0.05486499               0.02579175               0.00000000 
  -0.14955074    1.91301457               0.05384812               0.02395275               0.00000000 
  -0.15769078    1.92115461               0.05345990               0.02319772               0.00000000 
   1.29116521    0.64558260               0.54129263               0.26869358               0.00000000 
   1.28302517    0.65372264               0.53958761               0.26992135               0.00000000 
   1.26400797    0.67273985               0.53530417               0.27257789               0.00000000 
   1.23448706    0.70226076               0.52784259               0.27609620               0.00000000 
   1.19494952    0.74179829               0.51636823               0.27960952               0.00000000 
   1.14604498    0.79070283               0.49998928               0.28198551               0.00000000 
   1.08857657    0.84817124               0.47796810               0.28192833               0.00000000 
   1.02348797    0.91325984               0.44994621               0.27815632               0.00000000 
   0.95184795    0.98489986               0.41613639               0.26964335               0.00000000 
   0.87483285    1.06191497               0.37742819               0.25587345               0.00000000 
   0.79370725    1.14304056               0.33536333               0.23702717               0.00000000 
   0.70980325    1.22694456               0.29196528               0.21401890               0.00000000 
   0.62449854    1.31224927               0.24944956               0.18834811               0.00000000 
   0.53919384    1.39755398               0.20988294               0.16180045               0.00000000 
   0.45528983    1.48145798               0.17488150               0.13609680               0.00000000 
   0.37416424    1.56258358               0.14542435               0.11260394               0.00000000 
   0.29714913    1.63959868               0.12181646               0.09218281               0.00000000 
   0.22550911    1.71123870               0.10378354               0.07518566               0.00000000 
   0.16042051    1.77632730               0.09064726               0.06156017               0.00000000 
   0.10295210    1.83379571               0.08152094               0.05099808               0.00000000 
   0.05404756    1.88270025               0.07547981               0.04307644               0.00000000 
   0.01451003    1.92223778               0.07168253               0.03736350               0.00000000 
  -0.01501088    1.95175870               0.06944154               0.03348424               0.00000000 
  -0.03402809    1.97077590               0.06825256               0.03115351               0.00000000 
  -0.04216812    1.97891594               0.06780229               0.03019505               0.00000000 
   1.41285360    0.70642680               0.59885281               0.30086866               0.00000000 
   1.40471357    0.71456684               0.59741161               0.30249201               0.00000000 
   1.38569636    0.73358404               0.59370542               0.30605632               0.00000000 
   1.35617545    0.76310495               0.58702782               0.31093232               0.00000000 
   1.31663791    0.80264249               0.57638031               0.31614871               0.00000000 
   1.26773338    0.85154703               0.56065521               0.32041372               0.00000000 
   1.21026497    0.90901544               0.53886474               0.32221330               0.00000000 
   1.14517637    0.97410404               0.51039807               0.31999877               0.00000000 
   1.07353635    1.04574406               0.47525764               0.31245758               0.00000000 
   0.99652124    1.12275916               0.43421227               0.29881630               0.00000000 
   0.91539565    1.20388476               0.38880969               0.27908416               0.00000000 
   0.83149164    1.28778876               0.34121975               0.25413766               0.00000000 
   0.74618694    1.37309347               0.29392737               0.22558978               0.00000000 
   0.66088223    1.45839817               0.24934604               0.19546957               0.00000000 
   0.57697823    1.54230218               0.20945296               0.16581629               0.00000000 
   0.49585263    1.62342777               0.17554016               0.13832187               0.00000000 
   0.41883753    1.70044288               0.14813181               0.11412082               0.00000000 
   0.34719750    1.77208290               0.12706016               0.09375446               0.00000000 
   0.28210890    1.83717150               0.11164779               0.07727008               0.00000000 
   0.22464050    1.89463991               0.10092877               0.06438517               0.00000000 
   0.17573596    1.94354445               0.09385194               0.05465334               0.00000000 
   0.13619842    1.98308198               0.08943415               0.04759468               0.00000000 
   0.10667751    2.01260289               0.08685530               0.04278052               0.00000000 
   0.08766031    2.03162010               0.08550469               0.03987921               0.00000000 
   0.07952027    2.03976013               0.08499852               0.03868409               0.00000000 
   1.53870961    0.76935480               0.64595791               0.32744862               0.00000000 
   1.53056957    0.77749484               0.64488328               0.32949539               0.00000000 
   1.51155237    0.79651204               0.64200492               0.33404071               0.00000000 
   1.48203145    0.82603296               0.63652729               0.34041053               0.00000000 
   1.44249392    0.86557049               0.62730931               0.34755373               0.00000000 
   1.39358938    0.91447503               0.61304243               0.35404620               0.00000000 
   1.33612097    0.97194344               0.59248761               0.35817812               0.00000000 
   1.27103237    1.03703204               0.56475627               0.35814287               0.00000000 
   1.19939235    1.10867206               0.52958719               0.35232921               0.00000000 
   1.12237725    1.18568717               0.48755111               0.33966848               0.00000000 
   1.04125165    1.26681276               0.44011241               0.31993812               0.00000000 
   0.95734765    1.35071676               0.38950280               0.29390414               0.00000000 